    1C
    1USimple_beam.                                                      
    1UUSER                                                              
    1UDATE              16.february.2025                                
    1UTIME              10:35:27                                        
    1UHOST                                                              
    1UPGM               CalculiX                                        
    1UVERSION           Version 2.22                             
    1UCOMPILETIME       Sun Aug  4 19:39:24     2024                    
    1UDIR                                                               
    1UDBN                                                               
    1UMAT    1STEEL                                                     

    1PSTEP                         1           1           1          
  100CL  101 0.00000E+00        4403                     4    1           1
 -4  DISP        4    1
 -5  D1          1    2    1    0
 -5  D2          1    2    2    0
 -5  D3          1    2    3    0
 -5  ALL         1    2    0    0    1ALL
 -1         1 0.00000E+00 0.00000E+00 0.00000E+00
 -1         2 0.00000E+00 0.00000E+00 0.00000E+00
 -1         3 0.00000E+00 0.00000E+00 0.00000E+00
 -1         4 0.00000E+00 0.00000E+00 0.00000E+00
 -1         5-9.49257E-02-1.42346E-03 1.42390E-03
 -1         6-9.49262E-02-1.42274E-03-1.43324E-03
 -1         7-9.49263E-02 1.43368E-03 1.42463E-03
 -1         8-9.49268E-02 1.43440E-03-1.43252E-03
 -1         9 0.00000E+00 0.00000E+00 0.00000E+00
 -1        10 0.00000E+00 0.00000E+00 0.00000E+00
 -1        11 0.00000E+00 0.00000E+00 0.00000E+00
 -1        12 0.00000E+00 0.00000E+00 0.00000E+00
 -1        13 0.00000E+00 0.00000E+00 0.00000E+00
 -1        14 0.00000E+00 0.00000E+00 0.00000E+00
 -1        15 0.00000E+00 0.00000E+00 0.00000E+00
 -1        16 0.00000E+00 0.00000E+00 0.00000E+00
 -1        17 0.00000E+00 0.00000E+00 0.00000E+00
 -1        18 0.00000E+00 0.00000E+00 0.00000E+00
 -1        19 0.00000E+00 0.00000E+00 0.00000E+00
 -1        20 0.00000E+00 0.00000E+00 0.00000E+00
 -1        21 0.00000E+00 0.00000E+00 0.00000E+00
 -1        22 0.00000E+00 0.00000E+00 0.00000E+00
 -1        23 0.00000E+00 0.00000E+00 0.00000E+00
 -1        24 0.00000E+00 0.00000E+00 0.00000E+00
 -1        25 0.00000E+00 0.00000E+00 0.00000E+00
 -1        26 0.00000E+00 0.00000E+00 0.00000E+00
 -1        27 0.00000E+00 0.00000E+00 0.00000E+00
 -1        28 0.00000E+00 0.00000E+00 0.00000E+00
 -1        29 0.00000E+00 0.00000E+00 0.00000E+00
 -1        30 0.00000E+00 0.00000E+00 0.00000E+00
 -1        31 0.00000E+00 0.00000E+00 0.00000E+00
 -1        32 0.00000E+00 0.00000E+00 0.00000E+00
 -1        33 0.00000E+00 0.00000E+00 0.00000E+00
 -1        34 0.00000E+00 0.00000E+00 0.00000E+00
 -1        35 0.00000E+00 0.00000E+00 0.00000E+00
 -1        36 0.00000E+00 0.00000E+00 0.00000E+00
 -1        37-9.49260E-02-1.42292E-03-7.18953E-04
 -1        38-9.49259E-02-1.42310E-03-4.66732E-06
 -1        39-9.49258E-02-1.42328E-03 7.09618E-04
 -1        40-9.49261E-02-1.42283E-03-1.07610E-03
 -1        41-9.49260E-02-1.42301E-03-3.61810E-04
 -1        42-9.49259E-02-1.42319E-03 3.52476E-04
 -1        43-9.49257E-02-1.42337E-03 1.06676E-03
 -1        44-9.49258E-02-7.09176E-04 1.42408E-03
 -1        45-9.49260E-02 5.10932E-06 1.42427E-03
 -1        46-9.49261E-02 7.19395E-04 1.42445E-03
 -1        47-9.49258E-02-1.06632E-03 1.42399E-03
 -1        48-9.49259E-02-3.52034E-04 1.42418E-03
 -1        49-9.49261E-02 3.62252E-04 1.42436E-03
 -1        50-9.49262E-02 1.07654E-03 1.42454E-03
 -1        51-9.49266E-02 1.43422E-03-7.18229E-04
 -1        52-9.49265E-02 1.43404E-03-3.94364E-06
 -1        53-9.49264E-02 1.43386E-03 7.10342E-04
 -1        54-9.49267E-02 1.43431E-03-1.07537E-03
 -1        55-9.49266E-02 1.43413E-03-3.61086E-04
 -1        56-9.49265E-02 1.43395E-03 3.53199E-04
 -1        57-9.49263E-02 1.43377E-03 1.06748E-03
 -1        58-9.49263E-02-7.08453E-04-1.43306E-03
 -1        59-9.49265E-02 5.83301E-06-1.43288E-03
 -1        60-9.49266E-02 7.20119E-04-1.43270E-03
 -1        61-9.49262E-02-1.06560E-03-1.43315E-03
 -1        62-9.49264E-02-3.51310E-04-1.43297E-03
 -1        63-9.49265E-02 3.62976E-04-1.43279E-03
 -1        64-9.49267E-02 1.07726E-03-1.43261E-03
 -1        65-2.95201E-03-1.20998E-03-1.21221E-03
 -1        66-5.43632E-03-1.41754E-03-1.41156E-03
 -1        67-8.11863E-03-1.43775E-03-1.43676E-03
 -1        68-1.08948E-02-1.43229E-03-1.43318E-03
 -1        69-1.36922E-02-1.42923E-03-1.43037E-03
 -1        70-1.64941E-02-1.42796E-03-1.42948E-03
 -1        71-1.92957E-02-1.42758E-03-1.42942E-03
 -1        72-2.20970E-02-1.42739E-03-1.42955E-03
 -1        73-2.48981E-02-1.42722E-03-1.42971E-03
 -1        74-2.76993E-02-1.42704E-03-1.42985E-03
 -1        75-3.05004E-02-1.42687E-03-1.43000E-03
 -1        76-3.33015E-02-1.42669E-03-1.43014E-03
 -1        77-3.61026E-02-1.42651E-03-1.43028E-03
 -1        78-3.89038E-02-1.42633E-03-1.43042E-03
 -1        79-4.17049E-02-1.42615E-03-1.43056E-03
 -1        80-4.45060E-02-1.42597E-03-1.43070E-03
 -1        81-4.73071E-02-1.42579E-03-1.43084E-03
 -1        82-5.01082E-02-1.42561E-03-1.43098E-03
 -1        83-5.29094E-02-1.42543E-03-1.43112E-03
 -1        84-5.57105E-02-1.42525E-03-1.43127E-03
 -1        85-5.85116E-02-1.42507E-03-1.43141E-03
 -1        86-6.13127E-02-1.42489E-03-1.43155E-03
 -1        87-6.41138E-02-1.42471E-03-1.43169E-03
 -1        88-6.69150E-02-1.42453E-03-1.43183E-03
 -1        89-6.97161E-02-1.42435E-03-1.43197E-03
 -1        90-7.25172E-02-1.42417E-03-1.43211E-03
 -1        91-7.53183E-02-1.42399E-03-1.43225E-03
 -1        92-7.81194E-02-1.42382E-03-1.43239E-03
 -1        93-8.09206E-02-1.42364E-03-1.43253E-03
 -1        94-8.37217E-02-1.42346E-03-1.43267E-03
 -1        95-8.65228E-02-1.42328E-03-1.43282E-03
 -1        96-8.93239E-02-1.42310E-03-1.43296E-03
 -1        97-9.21250E-02-1.42292E-03-1.43310E-03
 -1        98-1.71886E-03-9.18039E-04-9.21400E-04
 -1        99-4.17006E-03-1.35956E-03-1.35551E-03
 -1       100-6.76169E-03-1.43491E-03-1.43438E-03
 -1       101-9.50169E-03-1.43567E-03-1.43583E-03
 -1       102-1.22924E-02-1.43060E-03-1.43173E-03
 -1       103-1.50931E-02-1.42842E-03-1.42975E-03
 -1       104-1.78950E-02-1.42772E-03-1.42941E-03
 -1       105-2.06964E-02-1.42747E-03-1.42948E-03
 -1       106-2.34976E-02-1.42730E-03-1.42963E-03
 -1       107-2.62987E-02-1.42713E-03-1.42978E-03
 -1       108-2.90998E-02-1.42695E-03-1.42993E-03
 -1       109-3.19009E-02-1.42678E-03-1.43007E-03
 -1       110-3.47021E-02-1.42660E-03-1.43021E-03
 -1       111-3.75032E-02-1.42642E-03-1.43035E-03
 -1       112-4.03043E-02-1.42624E-03-1.43049E-03
 -1       113-4.31054E-02-1.42606E-03-1.43063E-03
 -1       114-4.59066E-02-1.42588E-03-1.43077E-03
 -1       115-4.87077E-02-1.42570E-03-1.43091E-03
 -1       116-5.15088E-02-1.42552E-03-1.43105E-03
 -1       117-5.43099E-02-1.42534E-03-1.43120E-03
 -1       118-5.71110E-02-1.42516E-03-1.43134E-03
 -1       119-5.99122E-02-1.42498E-03-1.43148E-03
 -1       120-6.27133E-02-1.42480E-03-1.43162E-03
 -1       121-6.55144E-02-1.42462E-03-1.43176E-03
 -1       122-6.83155E-02-1.42444E-03-1.43190E-03
 -1       123-7.11166E-02-1.42426E-03-1.43204E-03
 -1       124-7.39178E-02-1.42408E-03-1.43218E-03
 -1       125-7.67189E-02-1.42390E-03-1.43232E-03
 -1       126-7.95200E-02-1.42373E-03-1.43246E-03
 -1       127-8.23211E-02-1.42355E-03-1.43260E-03
 -1       128-8.51222E-02-1.42337E-03-1.43275E-03
 -1       129-8.79234E-02-1.42319E-03-1.43289E-03
 -1       130-9.07245E-02-1.42301E-03-1.43303E-03
 -1       131-9.35256E-02-1.42283E-03-1.43317E-03
 -1       132-2.95163E-03-1.21023E-03 1.21189E-03
 -1       133-5.43639E-03-1.41774E-03 1.41147E-03
 -1       134-8.11973E-03-1.43772E-03 1.43754E-03
 -1       135-1.08935E-02-1.43315E-03 1.43249E-03
 -1       136-1.36918E-02-1.42982E-03 1.42916E-03
 -1       137-1.64937E-02-1.42866E-03 1.42802E-03
 -1       138-1.92953E-02-1.42831E-03 1.42770E-03
 -1       139-2.20965E-02-1.42811E-03 1.42755E-03
 -1       140-2.48977E-02-1.42794E-03 1.42742E-03
 -1       141-2.76988E-02-1.42777E-03 1.42729E-03
 -1       142-3.04999E-02-1.42759E-03 1.42715E-03
 -1       143-3.33010E-02-1.42741E-03 1.42700E-03
 -1       144-3.61021E-02-1.42723E-03 1.42686E-03
 -1       145-3.89033E-02-1.42705E-03 1.42672E-03
 -1       146-4.17044E-02-1.42687E-03 1.42658E-03
 -1       147-4.45055E-02-1.42669E-03 1.42644E-03
 -1       148-4.73066E-02-1.42651E-03 1.42630E-03
 -1       149-5.01078E-02-1.42633E-03 1.42616E-03
 -1       150-5.29089E-02-1.42615E-03 1.42602E-03
 -1       151-5.57100E-02-1.42597E-03 1.42588E-03
 -1       152-5.85111E-02-1.42579E-03 1.42574E-03
 -1       153-6.13122E-02-1.42562E-03 1.42560E-03
 -1       154-6.41134E-02-1.42544E-03 1.42545E-03
 -1       155-6.69145E-02-1.42526E-03 1.42531E-03
 -1       156-6.97156E-02-1.42508E-03 1.42517E-03
 -1       157-7.25167E-02-1.42490E-03 1.42503E-03
 -1       158-7.53178E-02-1.42472E-03 1.42489E-03
 -1       159-7.81190E-02-1.42454E-03 1.42475E-03
 -1       160-8.09201E-02-1.42436E-03 1.42461E-03
 -1       161-8.37212E-02-1.42418E-03 1.42447E-03
 -1       162-8.65223E-02-1.42400E-03 1.42433E-03
 -1       163-8.93234E-02-1.42382E-03 1.42419E-03
 -1       164-9.21246E-02-1.42364E-03 1.42405E-03
 -1       165-1.71880E-03-9.17953E-04 9.21078E-04
 -1       166-4.16976E-03-1.35960E-03 1.35579E-03
 -1       167-6.76216E-03-1.43576E-03 1.43494E-03
 -1       168-9.50128E-03-1.43618E-03 1.43564E-03
 -1       169-1.22917E-02-1.43134E-03 1.43062E-03
 -1       170-1.50928E-02-1.42905E-03 1.42842E-03
 -1       171-1.78945E-02-1.42845E-03 1.42782E-03
 -1       172-2.06959E-02-1.42820E-03 1.42762E-03
 -1       173-2.34971E-02-1.42803E-03 1.42749E-03
 -1       174-2.62982E-02-1.42786E-03 1.42735E-03
 -1       175-2.90994E-02-1.42768E-03 1.42722E-03
 -1       176-3.19005E-02-1.42750E-03 1.42708E-03
 -1       177-3.47016E-02-1.42732E-03 1.42693E-03
 -1       178-3.75027E-02-1.42714E-03 1.42679E-03
 -1       179-4.03038E-02-1.42696E-03 1.42665E-03
 -1       180-4.31050E-02-1.42678E-03 1.42651E-03
 -1       181-4.59061E-02-1.42660E-03 1.42637E-03
 -1       182-4.87072E-02-1.42642E-03 1.42623E-03
 -1       183-5.15083E-02-1.42624E-03 1.42609E-03
 -1       184-5.43094E-02-1.42606E-03 1.42595E-03
 -1       185-5.71106E-02-1.42588E-03 1.42581E-03
 -1       186-5.99117E-02-1.42571E-03 1.42567E-03
 -1       187-6.27128E-02-1.42553E-03 1.42552E-03
 -1       188-6.55139E-02-1.42535E-03 1.42538E-03
 -1       189-6.83150E-02-1.42517E-03 1.42524E-03
 -1       190-7.11162E-02-1.42499E-03 1.42510E-03
 -1       191-7.39173E-02-1.42481E-03 1.42496E-03
 -1       192-7.67184E-02-1.42463E-03 1.42482E-03
 -1       193-7.95195E-02-1.42445E-03 1.42468E-03
 -1       194-8.23206E-02-1.42427E-03 1.42454E-03
 -1       195-8.51218E-02-1.42409E-03 1.42440E-03
 -1       196-8.79229E-02-1.42391E-03 1.42426E-03
 -1       197-9.07240E-02-1.42373E-03 1.42412E-03
 -1       198-9.35251E-02-1.42355E-03 1.42397E-03
 -1       199-2.94991E-03 1.21157E-03-1.21485E-03
 -1       200-5.43755E-03 1.41334E-03-1.41568E-03
 -1       201-8.12095E-03 1.43798E-03-1.43700E-03
 -1       202-1.08942E-02 1.43342E-03-1.43248E-03
 -1       203-1.36930E-02 1.43035E-03-1.42955E-03
 -1       204-1.64948E-02 1.42955E-03-1.42874E-03
 -1       205-1.92964E-02 1.42955E-03-1.42870E-03
 -1       206-2.20976E-02 1.42972E-03-1.42884E-03
 -1       207-2.48988E-02 1.42991E-03-1.42899E-03
 -1       208-2.76999E-02 1.43010E-03-1.42913E-03
 -1       209-3.05010E-02 1.43028E-03-1.42927E-03
 -1       210-3.33021E-02 1.43046E-03-1.42941E-03
 -1       211-3.61032E-02 1.43064E-03-1.42956E-03
 -1       212-3.89044E-02 1.43082E-03-1.42970E-03
 -1       213-4.17055E-02 1.43100E-03-1.42984E-03
 -1       214-4.45066E-02 1.43117E-03-1.42998E-03
 -1       215-4.73077E-02 1.43135E-03-1.43012E-03
 -1       216-5.01088E-02 1.43153E-03-1.43026E-03
 -1       217-5.29100E-02 1.43171E-03-1.43040E-03
 -1       218-5.57111E-02 1.43189E-03-1.43054E-03
 -1       219-5.85122E-02 1.43207E-03-1.43068E-03
 -1       220-6.13133E-02 1.43225E-03-1.43082E-03
 -1       221-6.41144E-02 1.43243E-03-1.43096E-03
 -1       222-6.69156E-02 1.43261E-03-1.43111E-03
 -1       223-6.97167E-02 1.43279E-03-1.43125E-03
 -1       224-7.25178E-02 1.43297E-03-1.43139E-03
 -1       225-7.53189E-02 1.43315E-03-1.43153E-03
 -1       226-7.81200E-02 1.43333E-03-1.43167E-03
 -1       227-8.09212E-02 1.43351E-03-1.43181E-03
 -1       228-8.37223E-02 1.43369E-03-1.43195E-03
 -1       229-8.65234E-02 1.43387E-03-1.43209E-03
 -1       230-8.93245E-02 1.43405E-03-1.43223E-03
 -1       231-9.21256E-02 1.43423E-03-1.43237E-03
 -1       232-1.72168E-03 9.19433E-04-9.21109E-04
 -1       233-4.17055E-03 1.35684E-03-1.35804E-03
 -1       234-6.76321E-03 1.43561E-03-1.43460E-03
 -1       235-9.50218E-03 1.43620E-03-1.43570E-03
 -1       236-1.22928E-02 1.43163E-03-1.43083E-03
 -1       237-1.50939E-02 1.42980E-03-1.42900E-03
 -1       238-1.78956E-02 1.42952E-03-1.42868E-03
 -1       239-2.06970E-02 1.42963E-03-1.42876E-03
 -1       240-2.34982E-02 1.42982E-03-1.42891E-03
 -1       241-2.62993E-02 1.43001E-03-1.42906E-03
 -1       242-2.91004E-02 1.43019E-03-1.42920E-03
 -1       243-3.19016E-02 1.43037E-03-1.42934E-03
 -1       244-3.47027E-02 1.43055E-03-1.42948E-03
 -1       245-3.75038E-02 1.43073E-03-1.42963E-03
 -1       246-4.03049E-02 1.43091E-03-1.42977E-03
 -1       247-4.31060E-02 1.43108E-03-1.42991E-03
 -1       248-4.59072E-02 1.43126E-03-1.43005E-03
 -1       249-4.87083E-02 1.43144E-03-1.43019E-03
 -1       250-5.15094E-02 1.43162E-03-1.43033E-03
 -1       251-5.43105E-02 1.43180E-03-1.43047E-03
 -1       252-5.71116E-02 1.43198E-03-1.43061E-03
 -1       253-5.99128E-02 1.43216E-03-1.43075E-03
 -1       254-6.27139E-02 1.43234E-03-1.43089E-03
 -1       255-6.55150E-02 1.43252E-03-1.43104E-03
 -1       256-6.83161E-02 1.43270E-03-1.43118E-03
 -1       257-7.11172E-02 1.43288E-03-1.43132E-03
 -1       258-7.39184E-02 1.43306E-03-1.43146E-03
 -1       259-7.67195E-02 1.43324E-03-1.43160E-03
 -1       260-7.95206E-02 1.43342E-03-1.43174E-03
 -1       261-8.23217E-02 1.43360E-03-1.43188E-03
 -1       262-8.51228E-02 1.43378E-03-1.43202E-03
 -1       263-8.79240E-02 1.43396E-03-1.43216E-03
 -1       264-9.07251E-02 1.43414E-03-1.43230E-03
 -1       265-9.35262E-02 1.43431E-03-1.43244E-03
 -1       266-2.95130E-03 1.20876E-03 1.21612E-03
 -1       267-5.43662E-03 1.41258E-03 1.41808E-03
 -1       268-8.11823E-03 1.43626E-03 1.43869E-03
 -1       269-1.08943E-02 1.43257E-03 1.43319E-03
 -1       270-1.36923E-02 1.42968E-03 1.42993E-03
 -1       271-1.64943E-02 1.42884E-03 1.42876E-03
 -1       272-1.92959E-02 1.42883E-03 1.42842E-03
 -1       273-2.20971E-02 1.42900E-03 1.42827E-03
 -1       274-2.48983E-02 1.42919E-03 1.42815E-03
 -1       275-2.76994E-02 1.42937E-03 1.42801E-03
 -1       276-3.05005E-02 1.42955E-03 1.42787E-03
 -1       277-3.33016E-02 1.42973E-03 1.42773E-03
 -1       278-3.61028E-02 1.42991E-03 1.42759E-03
 -1       279-3.89039E-02 1.43009E-03 1.42745E-03
 -1       280-4.17050E-02 1.43027E-03 1.42731E-03
 -1       281-4.45061E-02 1.43045E-03 1.42716E-03
 -1       282-4.73072E-02 1.43063E-03 1.42702E-03
 -1       283-5.01084E-02 1.43081E-03 1.42688E-03
 -1       284-5.29095E-02 1.43099E-03 1.42674E-03
 -1       285-5.57106E-02 1.43117E-03 1.42660E-03
 -1       286-5.85117E-02 1.43135E-03 1.42646E-03
 -1       287-6.13128E-02 1.43153E-03 1.42632E-03
 -1       288-6.41140E-02 1.43171E-03 1.42618E-03
 -1       289-6.69151E-02 1.43189E-03 1.42604E-03
 -1       290-6.97162E-02 1.43207E-03 1.42590E-03
 -1       291-7.25173E-02 1.43225E-03 1.42576E-03
 -1       292-7.53184E-02 1.43242E-03 1.42561E-03
 -1       293-7.81196E-02 1.43260E-03 1.42547E-03
 -1       294-8.09207E-02 1.43278E-03 1.42533E-03
 -1       295-8.37218E-02 1.43296E-03 1.42519E-03
 -1       296-8.65229E-02 1.43314E-03 1.42505E-03
 -1       297-8.93240E-02 1.43332E-03 1.42491E-03
 -1       298-9.21252E-02 1.43350E-03 1.42477E-03
 -1       299-1.72107E-03 9.16907E-04 9.23107E-04
 -1       300-4.17038E-03 1.35525E-03 1.36084E-03
 -1       301-6.76150E-03 1.43442E-03 1.43607E-03
 -1       302-9.50142E-03 1.43521E-03 1.43642E-03
 -1       303-1.22923E-02 1.43094E-03 1.43146E-03
 -1       304-1.50933E-02 1.42911E-03 1.42916E-03
 -1       305-1.78951E-02 1.42879E-03 1.42855E-03
 -1       306-2.06965E-02 1.42890E-03 1.42834E-03
 -1       307-2.34977E-02 1.42909E-03 1.42821E-03
 -1       308-2.62988E-02 1.42928E-03 1.42808E-03
 -1       309-2.91000E-02 1.42946E-03 1.42794E-03
 -1       310-3.19011E-02 1.42964E-03 1.42780E-03
 -1       311-3.47022E-02 1.42982E-03 1.42766E-03
 -1       312-3.75033E-02 1.43000E-03 1.42752E-03
 -1       313-4.03044E-02 1.43018E-03 1.42738E-03
 -1       314-4.31056E-02 1.43036E-03 1.42724E-03
 -1       315-4.59067E-02 1.43054E-03 1.42709E-03
 -1       316-4.87078E-02 1.43072E-03 1.42695E-03
 -1       317-5.15089E-02 1.43090E-03 1.42681E-03
 -1       318-5.43100E-02 1.43108E-03 1.42667E-03
 -1       319-5.71112E-02 1.43126E-03 1.42653E-03
 -1       320-5.99123E-02 1.43144E-03 1.42639E-03
 -1       321-6.27134E-02 1.43162E-03 1.42625E-03
 -1       322-6.55145E-02 1.43180E-03 1.42611E-03
 -1       323-6.83156E-02 1.43198E-03 1.42597E-03
 -1       324-7.11168E-02 1.43216E-03 1.42583E-03
 -1       325-7.39179E-02 1.43234E-03 1.42568E-03
 -1       326-7.67190E-02 1.43251E-03 1.42554E-03
 -1       327-7.95201E-02 1.43269E-03 1.42540E-03
 -1       328-8.23212E-02 1.43287E-03 1.42526E-03
 -1       329-8.51224E-02 1.43305E-03 1.42512E-03
 -1       330-8.79235E-02 1.43323E-03 1.42498E-03
 -1       331-9.07246E-02 1.43341E-03 1.42484E-03
 -1       332-9.35257E-02 1.43359E-03 1.42470E-03
 -1       333 0.00000E+00 0.00000E+00 0.00000E+00
 -1       334 0.00000E+00 0.00000E+00 0.00000E+00
 -1       335 0.00000E+00 0.00000E+00 0.00000E+00
 -1       336 0.00000E+00 0.00000E+00 0.00000E+00
 -1       337 0.00000E+00 0.00000E+00 0.00000E+00
 -1       338 0.00000E+00 0.00000E+00 0.00000E+00
 -1       339 0.00000E+00 0.00000E+00 0.00000E+00
 -1       340 0.00000E+00 0.00000E+00 0.00000E+00
 -1       341 0.00000E+00 0.00000E+00 0.00000E+00
 -1       342 0.00000E+00 0.00000E+00 0.00000E+00
 -1       343 0.00000E+00 0.00000E+00 0.00000E+00
 -1       344 0.00000E+00 0.00000E+00 0.00000E+00
 -1       345 0.00000E+00 0.00000E+00 0.00000E+00
 -1       346 0.00000E+00 0.00000E+00 0.00000E+00
 -1       347 0.00000E+00 0.00000E+00 0.00000E+00
 -1       348 0.00000E+00 0.00000E+00 0.00000E+00
 -1       349 0.00000E+00 0.00000E+00 0.00000E+00
 -1       350 0.00000E+00 0.00000E+00 0.00000E+00
 -1       351 0.00000E+00 0.00000E+00 0.00000E+00
 -1       352 0.00000E+00 0.00000E+00 0.00000E+00
 -1       353 0.00000E+00 0.00000E+00 0.00000E+00
 -1       354 0.00000E+00 0.00000E+00 0.00000E+00
 -1       355 0.00000E+00 0.00000E+00 0.00000E+00
 -1       356 0.00000E+00 0.00000E+00 0.00000E+00
 -1       357 0.00000E+00 0.00000E+00 0.00000E+00
 -1       358 0.00000E+00 0.00000E+00 0.00000E+00
 -1       359 0.00000E+00 0.00000E+00 0.00000E+00
 -1       360 0.00000E+00 0.00000E+00 0.00000E+00
 -1       361 0.00000E+00 0.00000E+00 0.00000E+00
 -1       362 0.00000E+00 0.00000E+00 0.00000E+00
 -1       363 0.00000E+00 0.00000E+00 0.00000E+00
 -1       364 0.00000E+00 0.00000E+00 0.00000E+00
 -1       365 0.00000E+00 0.00000E+00 0.00000E+00
 -1       366 0.00000E+00 0.00000E+00 0.00000E+00
 -1       367 0.00000E+00 0.00000E+00 0.00000E+00
 -1       368 0.00000E+00 0.00000E+00 0.00000E+00
 -1       369 0.00000E+00 0.00000E+00 0.00000E+00
 -1       370 0.00000E+00 0.00000E+00 0.00000E+00
 -1       371 0.00000E+00 0.00000E+00 0.00000E+00
 -1       372 0.00000E+00 0.00000E+00 0.00000E+00
 -1       373 0.00000E+00 0.00000E+00 0.00000E+00
 -1       374 0.00000E+00 0.00000E+00 0.00000E+00
 -1       375 0.00000E+00 0.00000E+00 0.00000E+00
 -1       376 0.00000E+00 0.00000E+00 0.00000E+00
 -1       377 0.00000E+00 0.00000E+00 0.00000E+00
 -1       378 0.00000E+00 0.00000E+00 0.00000E+00
 -1       379 0.00000E+00 0.00000E+00 0.00000E+00
 -1       380 0.00000E+00 0.00000E+00 0.00000E+00
 -1       381 0.00000E+00 0.00000E+00 0.00000E+00
 -1       382 0.00000E+00 0.00000E+00 0.00000E+00
 -1       383 0.00000E+00 0.00000E+00 0.00000E+00
 -1       384 0.00000E+00 0.00000E+00 0.00000E+00
 -1       385 0.00000E+00 0.00000E+00 0.00000E+00
 -1       386 0.00000E+00 0.00000E+00 0.00000E+00
 -1       387 0.00000E+00 0.00000E+00 0.00000E+00
 -1       388 0.00000E+00 0.00000E+00 0.00000E+00
 -1       389 0.00000E+00 0.00000E+00 0.00000E+00
 -1       390 0.00000E+00 0.00000E+00 0.00000E+00
 -1       391 0.00000E+00 0.00000E+00 0.00000E+00
 -1       392 0.00000E+00 0.00000E+00 0.00000E+00
 -1       393 0.00000E+00 0.00000E+00 0.00000E+00
 -1       394 0.00000E+00 0.00000E+00 0.00000E+00
 -1       395 0.00000E+00 0.00000E+00 0.00000E+00
 -1       396 0.00000E+00 0.00000E+00 0.00000E+00
 -1       397 0.00000E+00 0.00000E+00 0.00000E+00
 -1       398 0.00000E+00 0.00000E+00 0.00000E+00
 -1       399 0.00000E+00 0.00000E+00 0.00000E+00
 -1       400 0.00000E+00 0.00000E+00 0.00000E+00
 -1       401 0.00000E+00 0.00000E+00 0.00000E+00
 -1       402 0.00000E+00 0.00000E+00 0.00000E+00
 -1       403 0.00000E+00 0.00000E+00 0.00000E+00
 -1       404 0.00000E+00 0.00000E+00 0.00000E+00
 -1       405 0.00000E+00 0.00000E+00 0.00000E+00
 -1       406-9.49262E-02 3.39820E-04 7.79480E-04
 -1       407-9.49264E-02 3.35198E-04-8.30153E-04
 -1       408-9.49260E-02-8.58412E-04 3.97790E-04
 -1       409-9.49263E-02-3.50114E-04-8.29099E-04
 -1       410-9.49263E-02-3.22637E-06-2.76425E-04
 -1       411-9.49264E-02 7.75663E-04-3.06291E-04
 -1       412-9.49260E-02-3.97540E-04 8.68037E-04
 -1       413-9.49261E-02-7.84370E-04-3.10137E-04
 -1       414-9.49264E-02 9.15363E-04 3.70800E-04
 -1       415-9.49263E-02 3.55797E-04 1.90258E-04
 -1       416-9.49259E-02-9.00436E-04 9.01143E-04
 -1       417-9.49266E-02 9.11379E-04-9.09754E-04
 -1       418-9.49262E-02-8.99977E-04-9.10213E-04
 -1       419-9.49263E-02 9.15218E-04 9.05902E-04
 -1       420-9.49261E-02-2.62147E-04 2.81457E-04
 -1       421-9.49258E-02-1.16186E-03 8.05381E-04
 -1       422-9.49258E-02-1.16195E-03 1.16252E-03
 -1       423-9.49259E-02-8.04806E-04 1.16261E-03
 -1       424-9.49262E-02-1.16136E-03-1.17173E-03
 -1       425-9.49261E-02-1.16145E-03-8.14583E-04
 -1       426-9.49262E-02-8.04215E-04-1.17164E-03
 -1       427-9.49262E-02 8.17307E-04 1.16517E-03
 -1       428-9.49263E-02 1.17445E-03 1.16527E-03
 -1       429-9.49263E-02 1.17454E-03 8.08122E-04
 -1       430-9.49266E-02 1.17280E-03-8.13992E-04
 -1       431-9.49267E-02 1.17289E-03-1.17113E-03
 -1       432-9.49266E-02 8.15749E-04-1.17122E-03
 -1       433-9.49261E-02-1.10364E-03-5.14545E-04
 -1       434-9.49260E-02-1.10374E-03-1.57402E-04
 -1       435-9.49261E-02-8.42174E-04-6.10175E-04
 -1       436-9.49259E-02-1.14076E-03 1.96561E-04
 -1       437-9.49259E-02-1.14085E-03 5.53704E-04
 -1       438-9.49260E-02-8.21391E-04 4.38265E-05
 -1       439-9.49259E-02-8.79424E-04 6.49466E-04
 -1       440-9.49259E-02-5.53358E-04 1.14606E-03
 -1       441-9.49260E-02-1.96216E-04 1.14615E-03
 -1       442-9.49259E-02-6.48988E-04 8.84590E-04
 -1       443-9.49261E-02 1.72465E-04 1.10187E-03
 -1       444-9.49261E-02 5.29608E-04 1.10196E-03
 -1       445-9.49261E-02-2.88600E-05 8.23758E-04
 -1       446-9.49262E-02 6.27519E-04 8.42691E-04
 -1       447-9.49265E-02 1.10485E-03-1.55117E-04
 -1       448-9.49265E-02 1.10494E-03-5.12260E-04
 -1       449-9.49265E-02 8.43521E-04-6.08022E-04
 -1       450-9.49264E-02 1.17461E-03 5.40571E-04
 -1       451-9.49264E-02 1.17470E-03 1.83428E-04
 -1       452-9.49264E-02 8.45513E-04 3.22547E-05
 -1       453-9.49263E-02 9.15291E-04 6.38351E-04
 -1       454-9.49264E-02-1.72140E-04-1.13099E-03
 -1       455-9.49263E-02-5.29283E-04-1.13108E-03
 -1       456-9.49262E-02-6.25046E-04-8.69656E-04
 -1       457-9.49265E-02 5.27658E-04-1.13142E-03
 -1       458-9.49264E-02 1.70516E-04-1.13152E-03
 -1       459-9.49264E-02-7.45793E-06-8.29626E-04
 -1       460-9.49265E-02 6.23288E-04-8.69954E-04
 -1       461-9.49261E-02-3.29844E-04 5.74747E-04
 -1       462-9.49261E-02 3.88365E-05 5.30468E-04
 -1       463-9.49262E-02 3.47809E-04 4.84869E-04
 -1       464-9.49263E-02 6.35580E-04 2.80529E-04
 -1       465-9.49263E-02 6.27592E-04 5.75140E-04
 -1       466-9.49262E-02 4.68246E-05 2.35857E-04
 -1       467-9.49263E-02 1.65986E-04-5.53289E-04
 -1       468-9.49263E-02-1.76670E-04-5.52762E-04
 -1       469-9.49264E-02 5.55430E-04-5.68222E-04
 -1       470-9.49264E-02 3.86218E-04-2.91358E-04
 -1       471-9.49260E-02-6.27976E-04 6.32913E-04
 -1       472-9.49260E-02-5.60280E-04 3.39623E-04
 -1       473-9.49261E-02-5.23259E-04-1.43400E-05
 -1       474-9.49262E-02-3.93798E-04-2.93281E-04
 -1       475-9.49262E-02-5.67242E-04-5.69618E-04
 -1       476-9.49263E-02 5.65730E-04-5.80165E-05
 -1       477-9.49263E-02 1.76285E-04-4.30838E-05
 -1       478-9.49262E-02-1.32687E-04 2.51567E-06
 -1       479-6.55143E-02-1.42481E-03-7.04006E-04
 -1       480-7.67188E-02-1.42409E-03-7.04570E-04
 -1       481-8.78941E-02-1.42373E-03 7.10493E-04
 -1       482-5.43098E-02-1.42552E-03-7.03443E-04
 -1       483-5.99118E-02-1.42552E-03 6.97913E-04
 -1       484-7.11163E-02-1.42480E-03 6.97350E-04
 -1       485-8.23208E-02-1.42409E-03 6.96786E-04
 -1       486-4.87073E-02-1.42624E-03 6.98477E-04
 -1       487-1.50901E-02-1.42830E-03-7.06077E-04
 -1       488-2.06963E-02-1.42764E-03-7.01709E-04
 -1       489-9.49275E-03-1.43685E-03 7.10093E-04
 -1       490-3.19008E-02-1.42696E-03-7.02315E-04
 -1       491-4.02915E-02-1.42642E-03-7.04939E-04
 -1       492-2.62986E-02-1.42732E-03-7.02030E-04
 -1       493-3.87825E-03-1.38716E-03 6.59995E-04
 -1       494-6.71587E-03-1.44473E-03-7.19095E-04
 -1       495-9.08552E-02-1.42319E-03-6.96989E-04
 -1       496-4.59064E-02-1.42606E-03-7.03020E-04
 -1       497-8.51221E-02-1.42355E-03-7.04993E-04
 -1       498-1.78949E-02-1.42820E-03 7.00017E-04
 -1       499-3.47017E-02-1.42714E-03 6.99182E-04
 -1       500-4.30960E-02-1.42660E-03 7.10013E-04
 -1       501-2.34972E-02-1.42784E-03 6.99734E-04
 -1       502-2.90995E-02-1.42749E-03 6.99464E-04
 -1       503-1.91809E-03-1.15782E-03-1.98863E-04
 -1       504-9.29484E-02-1.42331E-03 3.32200E-04
 -1       505-6.55140E-02-1.42516E-03 6.97632E-04
 -1       506-7.67185E-02-1.42444E-03 6.97068E-04
 -1       507-5.43096E-02-1.42588E-03 6.98195E-04
 -1       508-5.99120E-02-1.42517E-03-7.03725E-04
 -1       509-7.11165E-02-1.42445E-03-7.04288E-04
 -1       510-6.70443E-03-1.44610E-03 7.23990E-04
 -1       511-9.48106E-03-1.43640E-03-7.13105E-04
 -1       512-1.22844E-02-1.43078E-03-7.10039E-04
 -1       513-1.36858E-02-1.42924E-03 1.96808E-06
 -1       514-8.79349E-02-1.42337E-03-7.09109E-04
 -1       515-6.83154E-02-1.42463E-03-7.04147E-04
 -1       516-6.83152E-02-1.42498E-03 6.97491E-04
 -1       517-4.59054E-02-1.42642E-03 7.04156E-04
 -1       518-4.87075E-02-1.42588E-03-7.03161E-04
 -1       519-5.71107E-02-1.42570E-03 6.98054E-04
 -1       520-5.71109E-02-1.42535E-03-7.03584E-04
 -1       521-2.34975E-02-1.42749E-03-7.01877E-04
 -1       522-3.47019E-02-1.42678E-03-7.02456E-04
 -1       523-3.75009E-02-1.42660E-03-7.07454E-04
 -1       524-3.88756E-02-1.42669E-03 5.95428E-06
 -1       525-3.19006E-02-1.42732E-03 6.99323E-04
 -1       526-7.39174E-02-1.42462E-03 6.97209E-04
 -1       527-7.39176E-02-1.42427E-03-7.04429E-04
 -1       528-4.30905E-02-1.42624E-03-7.09936E-04
 -1       529-8.51219E-02-1.42391E-03 6.96645E-04
 -1       530-8.23210E-02-1.42373E-03-7.04852E-04
 -1       531-2.62984E-02-1.42767E-03 6.99602E-04
 -1       532-2.06961E-02-1.42800E-03 6.99850E-04
 -1       533-7.95199E-02-1.42391E-03-7.04711E-04
 -1       534-1.78949E-02-1.42783E-03-7.04117E-04
 -1       535-7.95196E-02-1.42426E-03 6.96927E-04
 -1       536-5.15087E-02-1.42570E-03-7.03302E-04
 -1       537-2.90997E-02-1.42714E-03-7.02174E-04
 -1       538-5.15084E-02-1.42606E-03 6.98336E-04
 -1       539-6.27132E-02-1.42499E-03-7.03865E-04
 -1       540-6.27129E-02-1.42534E-03 6.97773E-04
 -1       541-5.45587E-03-1.45759E-03-5.77987E-06
 -1       542-8.08423E-03-1.44703E-03-1.83917E-07
 -1       543-1.51458E-02-1.42871E-03 7.13283E-04
 -1       544-2.01460E-03-1.16504E-03 2.22277E-04
 -1       545-3.74982E-02-1.42696E-03 7.13808E-04
 -1       546-4.16939E-02-1.42651E-03 4.13319E-06
 -1       547-8.91752E-02-1.42347E-03 3.68195E-06
 -1       548-1.22357E-02-1.43109E-03 7.15863E-04
 -1       549-8.65161E-02-1.42364E-03-3.58974E-06
 -1       550-1.64944E-02-1.42812E-03-7.34185E-07
 -1       551-7.53181E-02-1.42436E-03-3.68072E-06
 -1       552-7.25170E-02-1.42454E-03-3.53978E-06
 -1       553-6.13125E-02-1.42525E-03-2.97601E-06
 -1       554-7.81192E-02-1.42418E-03-3.82167E-06
 -1       555-5.29091E-02-1.42579E-03-2.55318E-06
 -1       556-6.41136E-02-1.42507E-03-3.11695E-06
 -1       557-5.85114E-02-1.42543E-03-2.83506E-06
 -1       558-5.57102E-02-1.42561E-03-2.69412E-06
 -1       559-8.37214E-02-1.42382E-03-4.10355E-06
 -1       560-8.09203E-02-1.42400E-03-3.96261E-06
 -1       561-6.97158E-02-1.42472E-03-3.39884E-06
 -1       562-5.01080E-02-1.42597E-03-2.41223E-06
 -1       563-4.44998E-02-1.42633E-03 5.12349E-07
 -1       564-1.92957E-02-1.42789E-03-8.62817E-07
 -1       565-2.20968E-02-1.42774E-03-1.00024E-06
 -1       566-2.76990E-02-1.42741E-03-1.28432E-06
 -1       567-3.05001E-02-1.42723E-03-1.42551E-06
 -1       568-2.48979E-02-1.42758E-03-1.14311E-06
 -1       569-3.33013E-02-1.42705E-03-1.56734E-06
 -1       570-6.69147E-02-1.42489E-03-3.25789E-06
 -1       571-4.73069E-02-1.42615E-03-2.27129E-06
 -1       572-3.61024E-02-1.42687E-03-1.71225E-06
 -1       573-4.02952E-02-1.42678E-03 7.14536E-04
 -1       574-1.08687E-02-1.43335E-03-9.88231E-07
 -1       575-9.28640E-02-1.42314E-03-3.61706E-04
 -1       576-3.88686E-03-1.38713E-03-6.58289E-04
 -1       577-9.08416E-02-1.42354E-03 6.88280E-04