    1C
    1USimple_beam.                                                      
    1UUSER                                                              
    1UDATE              17.february.2025                                
    1UTIME              20:19:24                                        
    1UHOST                                                              
    1UPGM               CalculiX                                        
    1UVERSION           Version 2.22                             
    1UCOMPILETIME       Sun Aug  4 19:39:24     2024                    
    1UDIR                                                               
    1UDBN                                                               
    1UMAT    1STEEL                                                     
    1PSTEP                         1           1           1          
  100CL  101 1.000000000        4403                     0    1           1
 -4  DISP        4    1
 -5  D1          1    2    1    0
 -5  D2          1    2    2    0
 -5  D3          1    2    3    0
 -5  ALL         1    2    0    0    1ALL
 -1         1 0.00000E+00 0.00000E+00 0.00000E+00
 -1         2 0.00000E+00 0.00000E+00 0.00000E+00
 -1         3 0.00000E+00 0.00000E+00 0.00000E+00
 -1         4 0.00000E+00 0.00000E+00 0.00000E+00
 -1         5 2.84459E-01 3.80879E+00-2.90681E-05
 -1         6 2.84460E-01 3.80879E+00 3.03331E-05
 -1         7-2.84459E-01 3.80879E+00 2.78200E-05
 -1         8-2.84463E-01 3.80879E+00-3.18389E-05
 -1         9 0.00000E+00 0.00000E+00 0.00000E+00
 -1        10 0.00000E+00 0.00000E+00 0.00000E+00
 -1        11 0.00000E+00 0.00000E+00 0.00000E+00
 -1        12 0.00000E+00 0.00000E+00 0.00000E+00
 -1        13 0.00000E+00 0.00000E+00 0.00000E+00
 -1        14 0.00000E+00 0.00000E+00 0.00000E+00
 -1        15 0.00000E+00 0.00000E+00 0.00000E+00
 -1        16 0.00000E+00 0.00000E+00 0.00000E+00
 -1        17 0.00000E+00 0.00000E+00 0.00000E+00
 -1        18 0.00000E+00 0.00000E+00 0.00000E+00
 -1        19 0.00000E+00 0.00000E+00 0.00000E+00
 -1        20 0.00000E+00 0.00000E+00 0.00000E+00
 -1        21 0.00000E+00 0.00000E+00 0.00000E+00
 -1        22 0.00000E+00 0.00000E+00 0.00000E+00
 -1        23 0.00000E+00 0.00000E+00 0.00000E+00
 -1        24 0.00000E+00 0.00000E+00 0.00000E+00
 -1        25 0.00000E+00 0.00000E+00 0.00000E+00
 -1        26 0.00000E+00 0.00000E+00 0.00000E+00
 -1        27 0.00000E+00 0.00000E+00 0.00000E+00
 -1        28 0.00000E+00 0.00000E+00 0.00000E+00
 -1        29 0.00000E+00 0.00000E+00 0.00000E+00
 -1        30 0.00000E+00 0.00000E+00 0.00000E+00
 -1        31 0.00000E+00 0.00000E+00 0.00000E+00
 -1        32 0.00000E+00 0.00000E+00 0.00000E+00
 -1        33 0.00000E+00 0.00000E+00 0.00000E+00
 -1        34 0.00000E+00 0.00000E+00 0.00000E+00
 -1        35 0.00000E+00 0.00000E+00 0.00000E+00
 -1        36 0.00000E+00 0.00000E+00 0.00000E+00
 -1        37 2.84577E-01 3.80887E+00 3.91711E-05
 -1        38 2.84594E-01 3.80888E+00 4.89508E-06
 -1        39 2.84580E-01 3.80887E+00-3.22251E-05
 -1        40 2.84551E-01 3.80884E+00 3.70206E-05
 -1        41 2.84593E-01 3.80888E+00 2.29593E-05
 -1        42 2.84593E-01 3.80889E+00-1.88630E-05
 -1        43 2.84547E-01 3.80885E+00-3.62893E-05
 -1        44 1.41876E-01 3.80854E+00 6.83208E-05
 -1        45-3.70698E-06 3.80840E+00-7.08596E-07
 -1        46-1.41882E-01 3.80854E+00-6.39296E-05
 -1        47 2.13026E-01 3.80868E+00 4.24350E-05
 -1        48 7.09001E-02 3.80844E+00 4.37662E-05
 -1        49-7.09041E-02 3.80844E+00-4.17316E-05
 -1        50-2.13029E-01 3.80868E+00-4.22917E-05
 -1        51-2.84577E-01 3.80887E+00-4.05844E-05
 -1        52-2.84595E-01 3.80888E+00-6.91615E-06
 -1        53-2.84579E-01 3.80887E+00 3.15062E-05
 -1        54-2.84553E-01 3.80884E+00-3.86049E-05
 -1        55-2.84593E-01 3.80888E+00-2.49399E-05
 -1        56-2.84593E-01 3.80888E+00 1.76001E-05
 -1        57-2.84546E-01 3.80885E+00 3.54462E-05
 -1        58 1.41882E-01 3.80854E+00-6.05224E-05
 -1        59-3.27884E-06 3.80840E+00-5.47367E-07
 -1        60-1.41882E-01 3.80854E+00 5.99589E-05
 -1        61 2.13030E-01 3.80868E+00-3.79820E-05
 -1        62 7.09017E-02 3.80844E+00-4.24121E-05
 -1        63-7.09036E-02 3.80844E+00 4.01659E-05
 -1        64-2.13032E-01 3.80868E+00 3.65527E-05
 -1        65 1.61960E-02 5.96664E-03 6.71488E-03
 -1        66 3.15211E-02 1.99589E-02 7.79353E-03
 -1        67 4.68753E-02 4.35589E-02 7.78822E-03
 -1        68 6.18929E-02 7.62958E-02 7.57271E-03
 -1        69 7.64767E-02 1.17782E-01 7.31523E-03
 -1        70 9.05502E-02 1.67714E-01 7.05428E-03
 -1        71 1.04152E-01 2.25774E-01 6.81038E-03
 -1        72 1.17253E-01 2.91692E-01 6.55214E-03
 -1        73 1.29851E-01 3.65157E-01 6.31007E-03
 -1        74 1.41964E-01 4.45905E-01 6.05398E-03
 -1        75 1.53584E-01 5.33633E-01 5.79671E-03
 -1        76 1.64706E-01 6.28048E-01 5.54320E-03
 -1        77 1.75327E-01 7.28844E-01 5.30074E-03
 -1        78 1.85470E-01 8.35758E-01 5.04511E-03
 -1        79 1.95104E-01 9.48494E-01 4.78879E-03
 -1        80 2.04244E-01 1.06675E+00 4.53225E-03
 -1        81 2.12902E-01 1.19024E+00 4.28894E-03
 -1        82 2.21060E-01 1.31867E+00 4.03133E-03
 -1        83 2.28714E-01 1.45175E+00 3.78935E-03
 -1        84 2.35892E-01 1.58919E+00 3.53134E-03
 -1        85 2.42553E-01 1.73072E+00 3.27107E-03
 -1        86 2.48741E-01 1.87600E+00 3.02858E-03
 -1        87 2.54422E-01 2.02479E+00 2.77776E-03
 -1        88 2.59612E-01 2.17678E+00 2.51866E-03
 -1        89 2.64313E-01 2.33167E+00 2.27104E-03
 -1        90 2.68510E-01 2.48918E+00 2.01638E-03
 -1        91 2.72215E-01 2.64902E+00 1.76362E-03
 -1        92 2.75428E-01 2.81088E+00 1.51559E-03
 -1        93 2.78156E-01 2.97451E+00 1.26114E-03
 -1        94 2.80368E-01 3.13957E+00 1.00332E-03
 -1        95 2.82108E-01 3.30580E+00 7.62641E-04
 -1        96 2.83346E-01 3.47290E+00 5.13187E-04
 -1        97 2.84107E-01 3.64057E+00 2.86341E-04
 -1        98 8.70866E-03 2.84107E-03 4.99477E-03
 -1        99 2.38318E-02 1.17693E-02 7.50779E-03
 -1       100 3.92289E-02 3.05920E-02 7.84588E-03
 -1       101 5.44359E-02 5.88178E-02 7.68856E-03
 -1       102 6.92429E-02 9.59670E-02 7.44324E-03
 -1       103 8.35736E-02 1.41716E-01 7.18803E-03
 -1       104 9.74119E-02 1.95743E-01 6.93237E-03
 -1       105 1.10760E-01 2.57767E-01 6.68098E-03
 -1       106 1.23614E-01 3.27498E-01 6.42982E-03
 -1       107 1.35970E-01 4.04641E-01 6.17991E-03
 -1       108 1.47833E-01 4.88915E-01 5.92439E-03
 -1       109 1.59205E-01 5.80022E-01 5.67091E-03
 -1       110 1.70079E-01 6.77664E-01 5.42066E-03
 -1       111 1.80460E-01 7.81556E-01 5.16959E-03
 -1       112 1.90345E-01 8.91418E-01 4.91819E-03
 -1       113 1.99737E-01 1.00695E+00 4.66309E-03
 -1       114 2.08634E-01 1.12786E+00 4.41055E-03
 -1       115 2.17039E-01 1.25385E+00 4.15990E-03
 -1       116 2.24949E-01 1.38464E+00 3.90904E-03
 -1       117 2.32363E-01 1.51994E+00 3.65866E-03
 -1       118 2.39282E-01 1.65946E+00 3.40368E-03
 -1       119 2.45710E-01 1.80291E+00 3.15130E-03
 -1       120 2.51641E-01 1.94998E+00 2.90182E-03
 -1       121 2.57077E-01 2.10040E+00 2.64818E-03
 -1       122 2.62022E-01 2.25388E+00 2.39460E-03
 -1       123 2.66470E-01 2.41012E+00 2.14435E-03
 -1       124 2.70424E-01 2.56883E+00 1.89125E-03
 -1       125 2.73883E-01 2.72971E+00 1.63946E-03
 -1       126 2.76852E-01 2.89249E+00 1.38644E-03
 -1       127 2.79321E-01 3.05687E+00 1.13409E-03
 -1       128 2.81299E-01 3.22256E+00 8.83098E-04
 -1       129 2.82784E-01 3.38926E+00 6.36642E-04
 -1       130 2.83782E-01 3.55668E+00 3.98686E-04
 -1       131 2.84334E-01 3.72456E+00 1.71104E-04
 -1       132 1.61937E-02 5.96886E-03-6.71223E-03
 -1       133 3.15195E-02 1.99606E-02-7.79168E-03
 -1       134 4.68754E-02 4.35634E-02-7.78727E-03
 -1       135 6.18937E-02 7.63030E-02-7.56288E-03
 -1       136 7.64740E-02 1.17791E-01-7.31341E-03
 -1       137 9.05540E-02 1.67708E-01-7.05704E-03
 -1       138 1.04155E-01 2.25778E-01-6.80568E-03
 -1       139 1.17244E-01 2.91692E-01-6.54727E-03
 -1       140 1.29857E-01 3.65155E-01-6.30565E-03
 -1       141 1.41969E-01 4.45911E-01-6.04990E-03
 -1       142 1.53583E-01 5.33632E-01-5.79497E-03
 -1       143 1.64700E-01 6.28046E-01-5.53869E-03
 -1       144 1.75334E-01 7.28843E-01-5.29639E-03
 -1       145 1.85463E-01 8.35761E-01-5.04494E-03
 -1       146 1.95104E-01 9.48493E-01-4.78535E-03
 -1       147 2.04253E-01 1.06674E+00-4.53996E-03
 -1       148 2.12897E-01 1.19024E+00-4.28283E-03
 -1       149 2.21053E-01 1.31867E+00-4.03163E-03
 -1       150 2.28716E-01 1.45175E+00-3.78221E-03
 -1       151 2.35888E-01 1.58920E+00-3.52564E-03
 -1       152 2.42556E-01 1.73071E+00-3.27827E-03
 -1       153 2.48737E-01 1.87601E+00-3.02584E-03
 -1       154 2.54422E-01 2.02479E+00-2.77402E-03
 -1       155 2.59618E-01 2.17678E+00-2.51738E-03
 -1       156 2.64305E-01 2.33168E+00-2.26154E-03
 -1       157 2.68513E-01 2.48917E+00-2.02048E-03
 -1       158 2.72221E-01 2.64902E+00-1.76229E-03
 -1       159 2.75428E-01 2.81089E+00-1.51052E-03
 -1       160 2.78155E-01 2.97450E+00-1.26202E-03
 -1       161 2.80374E-01 3.13957E+00-1.00738E-03
 -1       162 2.82109E-01 3.30580E+00-7.60364E-04
 -1       163 2.83344E-01 3.47290E+00-5.13349E-04
 -1       164 2.84104E-01 3.64057E+00-2.83308E-04
 -1       165 8.70907E-03 2.84278E-03-4.99359E-03
 -1       166 2.38299E-02 1.17710E-02-7.50669E-03
 -1       167 3.92273E-02 3.05925E-02-7.84560E-03
 -1       168 5.44366E-02 5.88188E-02-7.68513E-03
 -1       169 6.92419E-02 9.59719E-02-7.43617E-03
 -1       170 8.35725E-02 1.41711E-01-7.18659E-03
 -1       171 9.74144E-02 1.95742E-01-6.92963E-03
 -1       172 1.10760E-01 2.57770E-01-6.67878E-03
 -1       173 1.23613E-01 3.27498E-01-6.42780E-03
 -1       174 1.35971E-01 4.04641E-01-6.17645E-03
 -1       175 1.47835E-01 4.88915E-01-5.92298E-03
 -1       176 1.59203E-01 5.80022E-01-5.66914E-03
 -1       177 1.70079E-01 6.77664E-01-5.41911E-03
 -1       178 1.80458E-01 7.81558E-01-5.16936E-03
 -1       179 1.90344E-01 8.91419E-01-4.91479E-03
 -1       180 1.99740E-01 1.00695E+00-4.66319E-03
 -1       181 2.08633E-01 1.12786E+00-4.41243E-03
 -1       182 2.17037E-01 1.25385E+00-4.15761E-03
 -1       183 2.24946E-01 1.38464E+00-3.90772E-03
 -1       184 2.32360E-01 1.51995E+00-3.65209E-03
 -1       185 2.39284E-01 1.65946E+00-3.40345E-03
 -1       186 2.45708E-01 1.80290E+00-3.15059E-03
 -1       187 2.51641E-01 1.94998E+00-2.89948E-03
 -1       188 2.57078E-01 2.10041E+00-2.64451E-03
 -1       189 2.62024E-01 2.25389E+00-2.39282E-03
 -1       190 2.66471E-01 2.41012E+00-2.14222E-03
 -1       191 2.70424E-01 2.56882E+00-1.89165E-03
 -1       192 2.73887E-01 2.72972E+00-1.63745E-03
 -1       193 2.76851E-01 2.89249E+00-1.38373E-03
 -1       194 2.79323E-01 3.05687E+00-1.13612E-03
 -1       195 2.81303E-01 3.22256E+00-8.82877E-04
 -1       196 2.82784E-01 3.38926E+00-6.35467E-04
 -1       197 2.83779E-01 3.55668E+00-3.98123E-04
 -1       198 2.84333E-01 3.72457E+00-1.67683E-04
 -1       199-1.61829E-02 5.96918E-03-6.72856E-03
 -1       200-3.15117E-02 1.99548E-02-7.80381E-03
 -1       201-4.68805E-02 4.35622E-02-7.78682E-03
 -1       202-6.19021E-02 7.62954E-02-7.56822E-03
 -1       203-7.64742E-02 1.17784E-01-7.31600E-03
 -1       204-9.05603E-02 1.67705E-01-7.06060E-03
 -1       205-1.04150E-01 2.25775E-01-6.80454E-03
 -1       206-1.17244E-01 2.91692E-01-6.54826E-03
 -1       207-1.29858E-01 3.65162E-01-6.30465E-03
 -1       208-1.41972E-01 4.45909E-01-6.05079E-03
 -1       209-1.53584E-01 5.33631E-01-5.79582E-03
 -1       210-1.64701E-01 6.28045E-01-5.53973E-03
 -1       211-1.75336E-01 7.28842E-01-5.29815E-03
 -1       212-1.85471E-01 8.35758E-01-5.04111E-03
 -1       213-1.95108E-01 9.48488E-01-4.79321E-03
 -1       214-2.04254E-01 1.06675E+00-4.53820E-03
 -1       215-2.12900E-01 1.19024E+00-4.28410E-03
 -1       216-2.21054E-01 1.31867E+00-4.03204E-03
 -1       217-2.28722E-01 1.45175E+00-3.78171E-03
 -1       218-2.35891E-01 1.58920E+00-3.52826E-03
 -1       219-2.42565E-01 1.73071E+00-3.27798E-03
 -1       220-2.48738E-01 1.87601E+00-3.02383E-03
 -1       221-2.54424E-01 2.02479E+00-2.77332E-03
 -1       222-2.59616E-01 2.17678E+00-2.52007E-03
 -1       223-2.64305E-01 2.33168E+00-2.26310E-03
 -1       224-2.68514E-01 2.48918E+00-2.02048E-03
 -1       225-2.72222E-01 2.64902E+00-1.76367E-03
 -1       226-2.75437E-01 2.81089E+00-1.51493E-03
 -1       227-2.78156E-01 2.97450E+00-1.26426E-03
 -1       228-2.80378E-01 3.13957E+00-1.00689E-03
 -1       229-2.82110E-01 3.30580E+00-7.58865E-04
 -1       230-2.83347E-01 3.47290E+00-5.14420E-04
 -1       231-2.84107E-01 3.64057E+00-2.86723E-04
 -1       232-8.71025E-03 2.85348E-03-4.98771E-03
 -1       233-2.38264E-02 1.17613E-02-7.51472E-03
 -1       234-3.92254E-02 3.05883E-02-7.84538E-03
 -1       235-5.44425E-02 5.88166E-02-7.68652E-03
 -1       236-6.92461E-02 9.59679E-02-7.44136E-03
 -1       237-8.35740E-02 1.41710E-01-7.18860E-03
 -1       238-9.74144E-02 1.95742E-01-6.93406E-03
 -1       239-1.10760E-01 2.57770E-01-6.67891E-03
 -1       240-1.23611E-01 3.27498E-01-6.42653E-03
 -1       241-1.35973E-01 4.04641E-01-6.17609E-03
 -1       242-1.47837E-01 4.88913E-01-5.92407E-03
 -1       243-1.59205E-01 5.80021E-01-5.67005E-03
 -1       244-1.70081E-01 6.77663E-01-5.42013E-03
 -1       245-1.80461E-01 7.81558E-01-5.16980E-03
 -1       246-1.90350E-01 8.91417E-01-4.91801E-03
 -1       247-1.99739E-01 1.00695E+00-4.66411E-03
 -1       248-2.08636E-01 1.12785E+00-4.41173E-03
 -1       249-2.17039E-01 1.25385E+00-4.15926E-03
 -1       250-2.24947E-01 1.38464E+00-3.90666E-03
 -1       251-2.32364E-01 1.51995E+00-3.65402E-03
 -1       252-2.39286E-01 1.65946E+00-3.40356E-03
 -1       253-2.45711E-01 1.80291E+00-3.15245E-03
 -1       254-2.51642E-01 1.94998E+00-2.89927E-03
 -1       255-2.57080E-01 2.10040E+00-2.64791E-03
 -1       256-2.62022E-01 2.25388E+00-2.39401E-03
 -1       257-2.66470E-01 2.41012E+00-2.14170E-03
 -1       258-2.70426E-01 2.56882E+00-1.89197E-03
 -1       259-2.73889E-01 2.72971E+00-1.63895E-03
 -1       260-2.76856E-01 2.89249E+00-1.38861E-03
 -1       261-2.79323E-01 3.05687E+00-1.13562E-03
 -1       262-2.81303E-01 3.22256E+00-8.81729E-04
 -1       263-2.82786E-01 3.38926E+00-6.35801E-04
 -1       264-2.83783E-01 3.55668E+00-3.99331E-04
 -1       265-2.84336E-01 3.72456E+00-1.72562E-04
 -1       266-1.61855E-02 5.96293E-03 6.72675E-03
 -1       267-3.15085E-02 1.99530E-02 7.80725E-03
 -1       268-4.68742E-02 4.35642E-02 7.79007E-03
 -1       269-6.18973E-02 7.63001E-02 7.56739E-03
 -1       270-7.64761E-02 1.17786E-01 7.31458E-03
 -1       271-9.05495E-02 1.67715E-01 7.05242E-03
 -1       272-1.04153E-01 2.25775E-01 6.81003E-03
 -1       273-1.17254E-01 2.91693E-01 6.55177E-03
 -1       274-1.29852E-01 3.65158E-01 6.30960E-03
 -1       275-1.41966E-01 4.45906E-01 6.05325E-03
 -1       276-1.53587E-01 5.33635E-01 5.79616E-03
 -1       277-1.64708E-01 6.28041E-01 5.54421E-03
 -1       278-1.75327E-01 7.28844E-01 5.30029E-03
 -1       279-1.85471E-01 8.35759E-01 5.04416E-03
 -1       280-1.95105E-01 9.48495E-01 4.78737E-03
 -1       281-2.04247E-01 1.06675E+00 4.53087E-03
 -1       282-2.12903E-01 1.19023E+00 4.28930E-03
 -1       283-2.21058E-01 1.31867E+00 4.03016E-03
 -1       284-2.28724E-01 1.45175E+00 3.78356E-03
 -1       285-2.35892E-01 1.58919E+00 3.52996E-03
 -1       286-2.42557E-01 1.73071E+00 3.27534E-03
 -1       287-2.48744E-01 1.87601E+00 3.02486E-03
 -1       288-2.54423E-01 2.02479E+00 2.77677E-03
 -1       289-2.59613E-01 2.17678E+00 2.51738E-03
 -1       290-2.64314E-01 2.33168E+00 2.26968E-03
 -1       291-2.68511E-01 2.48918E+00 2.01488E-03
 -1       292-2.72217E-01 2.64902E+00 1.76163E-03
 -1       293-2.75428E-01 2.81089E+00 1.51253E-03
 -1       294-2.78155E-01 2.97451E+00 1.25885E-03
 -1       295-2.80373E-01 3.13957E+00 1.00602E-03
 -1       296-2.82105E-01 3.30580E+00 7.57923E-04
 -1       297-2.83341E-01 3.47290E+00 5.12415E-04
 -1       298-2.84105E-01 3.64057E+00 2.81827E-04
 -1       299-8.70506E-03 2.84900E-03 4.99885E-03
 -1       300-2.38237E-02 1.17592E-02 7.51790E-03
 -1       301-3.92211E-02 3.05891E-02 7.84666E-03
 -1       302-5.44387E-02 5.88183E-02 7.68663E-03
 -1       303-6.92461E-02 9.59704E-02 7.44012E-03
 -1       304-8.35720E-02 1.41716E-01 7.18583E-03
 -1       305-9.74125E-02 1.95743E-01 6.93147E-03
 -1       306-1.10761E-01 2.57768E-01 6.68061E-03
 -1       307-1.23615E-01 3.27498E-01 6.42938E-03
 -1       308-1.35971E-01 4.04641E-01 6.17929E-03
 -1       309-1.47835E-01 4.88916E-01 5.92381E-03
 -1       310-1.59207E-01 5.80022E-01 5.67111E-03
 -1       311-1.70077E-01 6.77664E-01 5.42221E-03
 -1       312-1.80461E-01 7.81557E-01 5.16885E-03
 -1       313-1.90346E-01 8.91419E-01 4.91690E-03
 -1       314-1.99739E-01 1.00695E+00 4.66152E-03
 -1       315-2.08637E-01 1.12786E+00 4.41154E-03
 -1       316-2.17038E-01 1.25385E+00 4.15959E-03
 -1       317-2.24950E-01 1.38465E+00 3.90640E-03
 -1       318-2.32366E-01 1.51994E+00 3.65607E-03
 -1       319-2.39285E-01 1.65946E+00 3.40492E-03
 -1       320-2.45710E-01 1.80291E+00 3.14946E-03
 -1       321-2.51644E-01 1.94998E+00 2.89959E-03
 -1       322-2.57078E-01 2.10041E+00 2.64689E-03
 -1       323-2.62024E-01 2.25388E+00 2.39343E-03
 -1       324-2.66471E-01 2.41012E+00 2.14288E-03
 -1       325-2.70425E-01 2.56883E+00 1.88957E-03
 -1       326-2.73884E-01 2.72972E+00 1.63678E-03
 -1       327-2.76852E-01 2.89249E+00 1.38351E-03
 -1       328-2.79322E-01 3.05687E+00 1.13278E-03
 -1       329-2.81301E-01 3.22256E+00 8.82637E-04
 -1       330-2.82784E-01 3.38926E+00 6.33736E-04
 -1       331-2.83779E-01 3.55668E+00 3.95145E-04
 -1       332-2.84333E-01 3.72457E+00 1.66655E-04
 -1       333 0.00000E+00 0.00000E+00 0.00000E+00
 -1       334 0.00000E+00 0.00000E+00 0.00000E+00
 -1       335 0.00000E+00 0.00000E+00 0.00000E+00
 -1       336 0.00000E+00 0.00000E+00 0.00000E+00
 -1       337 0.00000E+00 0.00000E+00 0.00000E+00
 -1       338 0.00000E+00 0.00000E+00 0.00000E+00
 -1       339 0.00000E+00 0.00000E+00 0.00000E+00
 -1       340 0.00000E+00 0.00000E+00 0.00000E+00
 -1       341 0.00000E+00 0.00000E+00 0.00000E+00
 -1       342 0.00000E+00 0.00000E+00 0.00000E+00
 -1       343 0.00000E+00 0.00000E+00 0.00000E+00
 -1       344 0.00000E+00 0.00000E+00 0.00000E+00
 -1       345 0.00000E+00 0.00000E+00 0.00000E+00
 -1       346 0.00000E+00 0.00000E+00 0.00000E+00
 -1       347 0.00000E+00 0.00000E+00 0.00000E+00
 -1       348 0.00000E+00 0.00000E+00 0.00000E+00
 -1       349 0.00000E+00 0.00000E+00 0.00000E+00
 -1       350 0.00000E+00 0.00000E+00 0.00000E+00
 -1       351 0.00000E+00 0.00000E+00 0.00000E+00
 -1       352 0.00000E+00 0.00000E+00 0.00000E+00
 -1       353 0.00000E+00 0.00000E+00 0.00000E+00
 -1       354 0.00000E+00 0.00000E+00 0.00000E+00
 -1       355 0.00000E+00 0.00000E+00 0.00000E+00
 -1       356 0.00000E+00 0.00000E+00 0.00000E+00
 -1       357 0.00000E+00 0.00000E+00 0.00000E+00
 -1       358 0.00000E+00 0.00000E+00 0.00000E+00
 -1       359 0.00000E+00 0.00000E+00 0.00000E+00
 -1       360 0.00000E+00 0.00000E+00 0.00000E+00
 -1       361 0.00000E+00 0.00000E+00 0.00000E+00
 -1       362 0.00000E+00 0.00000E+00 0.00000E+00
 -1       363 0.00000E+00 0.00000E+00 0.00000E+00
 -1       364 0.00000E+00 0.00000E+00 0.00000E+00
 -1       365 0.00000E+00 0.00000E+00 0.00000E+00
 -1       366 0.00000E+00 0.00000E+00 0.00000E+00
 -1       367 0.00000E+00 0.00000E+00 0.00000E+00
 -1       368 0.00000E+00 0.00000E+00 0.00000E+00
 -1       369 0.00000E+00 0.00000E+00 0.00000E+00
 -1       370 0.00000E+00 0.00000E+00 0.00000E+00
 -1       371 0.00000E+00 0.00000E+00 0.00000E+00
 -1       372 0.00000E+00 0.00000E+00 0.00000E+00
 -1       373 0.00000E+00 0.00000E+00 0.00000E+00
 -1       374 0.00000E+00 0.00000E+00 0.00000E+00
 -1       375 0.00000E+00 0.00000E+00 0.00000E+00
 -1       376 0.00000E+00 0.00000E+00 0.00000E+00
 -1       377 0.00000E+00 0.00000E+00 0.00000E+00
 -1       378 0.00000E+00 0.00000E+00 0.00000E+00
 -1       379 0.00000E+00 0.00000E+00 0.00000E+00
 -1       380 0.00000E+00 0.00000E+00 0.00000E+00
 -1       381 0.00000E+00 0.00000E+00 0.00000E+00
 -1       382 0.00000E+00 0.00000E+00 0.00000E+00
 -1       383 0.00000E+00 0.00000E+00 0.00000E+00
 -1       384 0.00000E+00 0.00000E+00 0.00000E+00
 -1       385 0.00000E+00 0.00000E+00 0.00000E+00
 -1       386 0.00000E+00 0.00000E+00 0.00000E+00
 -1       387 0.00000E+00 0.00000E+00 0.00000E+00
 -1       388 0.00000E+00 0.00000E+00 0.00000E+00
 -1       389 0.00000E+00 0.00000E+00 0.00000E+00
 -1       390 0.00000E+00 0.00000E+00 0.00000E+00
 -1       391 0.00000E+00 0.00000E+00 0.00000E+00
 -1       392 0.00000E+00 0.00000E+00 0.00000E+00
 -1       393 0.00000E+00 0.00000E+00 0.00000E+00
 -1       394 0.00000E+00 0.00000E+00 0.00000E+00
 -1       395 0.00000E+00 0.00000E+00 0.00000E+00
 -1       396 0.00000E+00 0.00000E+00 0.00000E+00
 -1       397 0.00000E+00 0.00000E+00 0.00000E+00
 -1       398 0.00000E+00 0.00000E+00 0.00000E+00
 -1       399 0.00000E+00 0.00000E+00 0.00000E+00
 -1       400 0.00000E+00 0.00000E+00 0.00000E+00
 -1       401 0.00000E+00 0.00000E+00 0.00000E+00
 -1       402 0.00000E+00 0.00000E+00 0.00000E+00
 -1       403 0.00000E+00 0.00000E+00 0.00000E+00
 -1       404 0.00000E+00 0.00000E+00 0.00000E+00
 -1       405 0.00000E+00 0.00000E+00 0.00000E+00
 -1       406-6.64645E-02 3.80849E+00-9.61993E-06
 -1       407-6.54614E-02 3.80849E+00 7.84535E-06
 -1       408 1.71764E-01 3.80871E+00-3.03932E-06
 -1       409 7.06875E-02 3.80850E+00-1.11030E-05
 -1       410 1.74155E-03 3.80852E+00-9.28943E-08
 -1       411-1.53111E-01 3.80867E+00-2.94390E-06
 -1       412 8.00252E-02 3.80850E+00 1.76645E-05
 -1       413 1.57053E-01 3.80868E+00 1.93271E-06
 -1       414-1.80973E-01 3.80872E+00 2.11342E-06
 -1       415-6.96297E-02 3.80856E+00-5.24697E-06
 -1       416 1.80078E-01 3.80867E+00 8.56351E-06
 -1       417-1.80071E-01 3.80868E+00 8.16633E-06
 -1       418 1.80070E-01 3.80868E+00-9.27019E-06
 -1       419-1.80934E-01 3.80867E+00-1.41435E-05
 -1       420 5.31635E-02 3.80854E+00 4.41717E-06
 -1       421 2.32264E-01 3.80879E+00-1.49606E-05
 -1       422 2.32200E-01 3.80876E+00 9.39625E-06
 -1       423 1.60985E-01 3.80860E+00 3.50568E-05
 -1       424 2.32203E-01 3.80876E+00-7.16241E-06
 -1       425 2.32263E-01 3.80879E+00 1.84955E-05
 -1       426 1.60978E-01 3.80860E+00-3.15414E-05
 -1       427-1.61408E-01 3.80860E+00-3.60717E-05
 -1       428-2.32630E-01 3.80876E+00-1.07729E-05
 -1       429-2.32692E-01 3.80879E+00 1.33690E-05
 -1       430-2.32265E-01 3.80879E+00-2.02094E-05
 -1       431-2.32205E-01 3.80876E+00 5.69753E-06
 -1       432-1.60980E-01 3.80860E+00 3.07523E-05
 -1       433 2.20728E-01 3.80879E+00 1.31008E-05
 -1       434 2.20738E-01 3.80880E+00 7.04814E-06
 -1       435 1.68565E-01 3.80868E+00-1.46384E-06
 -1       436 2.28115E-01 3.80882E+00-5.95548E-06
 -1       437 2.28094E-01 3.80880E+00-1.35585E-05
 -1       438 1.64414E-01 3.80870E+00-1.08050E-06
 -1       439 1.75926E-01 3.80869E+00 1.60449E-06
 -1       440 1.10958E-01 3.80851E+00 3.96847E-05
 -1       441 3.99937E-02 3.80843E+00 1.53462E-05
 -1       442 1.30019E-01 3.80858E+00 2.00982E-05
 -1       443-3.32184E-02 3.80842E+00-1.06625E-05
 -1       444-1.04183E-01 3.80850E+00-3.29122E-05
 -1       445 6.77012E-03 3.80847E+00 2.41111E-06
 -1       446-1.23665E-01 3.80857E+00-1.81554E-05
 -1       447-2.18761E-01 3.80879E+00-7.93287E-06
 -1       448-2.18753E-01 3.80879E+00-1.44679E-05
 -1       449-1.66594E-01 3.80868E+00 4.48460E-07
 -1       450-2.32708E-01 3.80881E+00 1.27862E-05
 -1       451-2.32729E-01 3.80882E+00 4.07560E-06
 -1       452-1.67046E-01 3.80870E+00-1.04230E-06
 -1       453-1.80959E-01 3.80870E+00-3.51193E-06
 -1       454 3.53272E-02 3.80842E+00-1.32612E-05
 -1       455 1.06293E-01 3.80850E+00-3.24068E-05
 -1       456 1.25347E-01 3.80858E+00-1.66523E-05
 -1       457-1.03681E-01 3.80850E+00 3.16572E-05
 -1       458-3.27175E-02 3.80842E+00 9.52696E-06
 -1       459 2.60349E-03 3.80847E+00-1.26260E-06
 -1       460-1.22734E-01 3.80857E+00 1.56022E-05
 -1       461 6.66001E-02 3.80852E+00 7.45501E-06
 -1       462-6.65679E-03 3.80850E+00-3.75148E-06
 -1       463-6.80527E-02 3.80853E+00-5.88781E-06
 -1       464-1.25273E-01 3.80863E+00-2.84048E-06
 -1       465-1.23688E-01 3.80860E+00-6.04419E-06
 -1       466-8.22639E-03 3.80853E+00-2.53612E-06
 -1       467-3.18626E-02 3.80850E+00 3.93784E-06
 -1       468 3.62155E-02 3.80850E+00-3.21458E-06
 -1       469-1.09276E-01 3.80857E+00 3.44540E-06
 -1       470-7.56494E-02 3.80856E+00 1.90952E-06
 -1       471 1.25876E-01 3.80860E+00 8.03458E-06
 -1       472 1.12435E-01 3.80860E+00 1.62357E-06
 -1       473 1.05088E-01 3.80860E+00 5.15837E-08
 -1       474 7.93599E-02 3.80856E+00-1.79360E-06
 -1       475 1.13859E-01 3.80858E+00-4.59110E-06
 -1       476-1.11358E-01 3.80861E+00-1.63418E-06
 -1       477-3.39406E-02 3.80854E+00-3.06217E-06
 -1       478 2.74521E-02 3.80853E+00 2.80253E-06
 -1       479 2.57180E-01 2.10141E+00 1.29948E-03
 -1       480 2.73981E-01 2.73033E+00 8.05304E-04
 -1       481 2.82863E-01 3.38778E+00-3.17885E-04
 -1       482 2.32461E-01 1.52133E+00 1.79545E-03
 -1       483 2.45808E-01 1.80410E+00-1.54657E-03
 -1       484 2.66544E-01 2.41093E+00-1.05083E-03
 -1       485 2.79417E-01 3.05730E+00-5.57786E-04
 -1       486 2.17138E-01 1.25543E+00-2.03961E-03
 -1       487 8.36614E-02 1.44381E-01 3.54723E-03
 -1       488 1.10852E-01 2.60302E-01 3.27989E-03
 -1       489 5.45003E-02 6.17286E-02-3.77133E-03
 -1       490 1.59297E-01 5.82178E-01 2.78516E-03
 -1       491 1.90402E-01 8.92773E-01 2.41987E-03
 -1       492 1.36074E-01 4.06983E-01 3.03237E-03
 -1       493 2.26217E-02 1.38829E-02-3.47421E-03
 -1       494 3.91536E-02 3.35466E-02 3.83678E-03
 -1       495 2.83911E-01 3.56467E+00 1.89121E-04
 -1       496 2.08714E-01 1.12953E+00 2.16743E-03
 -1       497 2.81378E-01 3.22289E+00 4.38959E-04
 -1       498 9.75141E-02 1.98369E-01-3.40097E-03
 -1       499 1.70151E-01 6.79718E-01-2.65900E-03
 -1       500 1.99801E-01 1.00832E+00-2.32408E-03
 -1       501 1.23686E-01 3.29935E-01-3.15349E-03
 -1       502 1.47931E-01 4.91163E-01-2.90444E-03
 -1       503 1.08760E-02 6.30008E-03 1.06809E-03
 -1       504 2.84375E-01 3.69009E+00-5.07149E-05
 -1       505 2.57179E-01 2.10141E+00-1.29787E-03
 -1       506 2.73981E-01 2.73034E+00-8.02199E-04
 -1       507 2.32461E-01 1.52133E+00-1.79226E-03
 -1       508 2.45784E-01 1.80410E+00 1.54777E-03
 -1       509 2.66565E-01 2.41093E+00 1.05233E-03
 -1       510 3.90950E-02 3.34386E-02-3.86030E-03
 -1       511 5.44102E-02 6.15727E-02 3.78523E-03
 -1       512 6.92964E-02 9.86610E-02 3.68540E-03
 -1       513 7.65378E-02 1.21338E-01-8.63254E-06
 -1       514 2.82882E-01 3.39019E+00 3.16691E-04
 -1       515 2.62118E-01 2.25479E+00 1.17761E-03
 -1       516 2.62122E-01 2.25480E+00-1.17393E-03
 -1       517 2.08731E-01 1.12949E+00-2.17934E-03
 -1       518 2.17131E-01 1.25543E+00 2.04297E-03
 -1       519 2.39370E-01 1.66076E+00-1.66972E-03
 -1       520 2.39390E-01 1.66077E+00 1.67023E-03
 -1       521 1.23686E-01 3.29941E-01 3.15369E-03
 -1       522 1.70151E-01 6.79725E-01 2.65867E-03
 -1       523 1.80551E-01 7.83423E-01 2.55299E-03
 -1       524 1.85468E-01 8.37189E-01-2.76557E-05
 -1       525 1.59307E-01 5.82178E-01-2.78066E-03
 -1       526 2.70522E-01 2.56954E+00-9.28436E-04
 -1       527 2.70525E-01 2.56955E+00 9.28473E-04
 -1       528 1.99792E-01 1.00809E+00 2.31157E-03
 -1       529 2.81395E-01 3.22289E+00-4.34458E-04
 -1       530 2.79420E-01 3.05731E+00 5.56193E-04
 -1       531 1.36067E-01 4.06982E-01-3.02903E-03
 -1       532 1.10859E-01 2.60307E-01-3.27561E-03
 -1       533 2.76953E-01 2.89301E+00 6.81256E-04
 -1       534 9.74923E-02 1.98360E-01 3.41856E-03
 -1       535 2.76943E-01 2.89301E+00-6.80493E-04
 -1       536 2.25022E-01 1.38613E+00 1.91662E-03
 -1       537 1.47935E-01 4.91163E-01 2.90990E-03
 -1       538 2.25044E-01 1.38613E+00-1.91446E-03
 -1       539 2.51737E-01 1.95108E+00 1.42243E-03
 -1       540 2.51741E-01 1.95108E+00-1.42158E-03
 -1       541 3.20536E-02 2.47475E-02 3.09013E-05
 -1       542 4.68734E-02 4.74147E-02 1.19953E-06
 -1       543 8.39309E-02 1.45340E-01-3.58763E-03
 -1       544 1.14041E-02 6.50036E-03-1.17514E-03
 -1       545 1.80536E-01 7.83314E-01-2.58675E-03
 -1       546 1.95170E-01 9.50443E-01-1.92674E-05
 -1       547 2.83388E-01 3.46429E+00-3.25148E-06
 -1       548 6.90342E-02 9.79204E-02-3.72006E-03
 -1       549 2.82210E-01 3.30580E+00-7.24806E-07
 -1       550 9.06456E-02 1.71241E-01 7.94875E-07
 -1       551 2.72310E-01 2.64990E+00-8.68939E-07
 -1       552 2.68611E-01 2.49019E+00 7.45109E-06
 -1       553 2.48847E-01 1.87752E+00-1.66747E-06
 -1       554 2.75525E-01 2.81164E+00-3.38094E-06
 -1       555 2.28806E-01 1.45364E+00 2.06893E-06
 -1       556 2.54525E-01 2.02618E+00 3.31101E-06
 -1       557 2.42647E-01 1.73235E+00-2.36173E-07
 -1       558 2.35989E-01 1.59096E+00 2.07814E-08
 -1       559 2.80463E-01 3.14008E+00 9.91595E-07
 -1       560 2.78253E-01 2.97514E+00-3.26720E-09
 -1       561 2.64406E-01 2.33281E+00 8.97521E-07
 -1       562 2.21165E-01 1.32068E+00 3.59296E-06
 -1       563 2.04328E-01 1.06876E+00-7.14055E-06
 -1       564 1.04259E-01 2.29180E-01-9.30544E-07
 -1       565 1.17356E-01 2.94963E-01 6.63478E-06
 -1       566 1.42069E-01 4.48933E-01-3.17051E-07
 -1       567 1.53685E-01 5.36529E-01-5.17418E-07
 -1       568 1.29959E-01 3.68315E-01 6.16020E-06
 -1       569 1.64808E-01 6.30813E-01 6.21091E-06
 -1       570 2.59714E-01 2.17804E+00 9.14347E-07
 -1       571 2.13002E-01 1.19238E+00-6.07760E-06
 -1       572 1.75435E-01 7.31496E-01 6.26568E-06
 -1       573 1.90416E-01 8.92907E-01-2.46489E-03
 -1       574 6.18592E-02 7.98109E-02 4.30309E-06
 -1       575 2.84371E-01 3.68502E+00 5.76919E-05
 -1       576 2.26658E-02 1.39327E-02 3.46636E-03
 -1       577 2.83913E-01 3.56387E+00-1.85599E-04