    1C
    1USimple_beam.                                                      
    1UUSER                                                              
    1UDATE              16.february.2025                                
    1UTIME              21:23:26                                        
    1UHOST                                                              
    1UPGM               CalculiX                                        
    1UVERSION           Version 2.22                             
    1UCOMPILETIME       Sun Aug  4 19:39:24     2024                    
    1UDIR                                                               
    1UDBN                                                               
    1UMAT    1STEEL                                                     
    1PSTEP                         1           1           1          
    1PGM                1.000000E+00                                  
    1PGK                2.759255E+07                                  
    1PHID                         -1                                  
    1PSUBC                         0                                  
    1PMODE                         1                                  
  100CL  101 836.0187730        4403                     2    1MODAL      1
 -4  DISP        4    1
 -5  D1          1    2    1    0
 -5  D2          1    2    2    0
 -5  D3          1    2    3    0
 -5  ALL         1    2    0    0    1ALL
 -1         1 0.00000E+00 0.00000E+00 0.00000E+00
 -1         2 0.00000E+00 0.00000E+00 0.00000E+00
 -1         3 0.00000E+00 0.00000E+00 0.00000E+00
 -1         4 0.00000E+00 0.00000E+00 0.00000E+00
 -1         5-1.25300E+01 3.91371E+01 2.22273E+02
 -1         6 1.78856E+01 3.91378E+01 2.22272E+02
 -1         7-1.78855E+01 3.91367E+01 2.22273E+02
 -1         8 1.25301E+01 3.91382E+01 2.22274E+02
 -1         9 0.00000E+00 0.00000E+00 0.00000E+00
 -1        10 0.00000E+00 0.00000E+00 0.00000E+00
 -1        11 0.00000E+00 0.00000E+00 0.00000E+00
 -1        12 0.00000E+00 0.00000E+00 0.00000E+00
 -1        13 0.00000E+00 0.00000E+00 0.00000E+00
 -1        14 0.00000E+00 0.00000E+00 0.00000E+00
 -1        15 0.00000E+00 0.00000E+00 0.00000E+00
 -1        16 0.00000E+00 0.00000E+00 0.00000E+00
 -1        17 0.00000E+00 0.00000E+00 0.00000E+00
 -1        18 0.00000E+00 0.00000E+00 0.00000E+00
 -1        19 0.00000E+00 0.00000E+00 0.00000E+00
 -1        20 0.00000E+00 0.00000E+00 0.00000E+00
 -1        21 0.00000E+00 0.00000E+00 0.00000E+00
 -1        22 0.00000E+00 0.00000E+00 0.00000E+00
 -1        23 0.00000E+00 0.00000E+00 0.00000E+00
 -1        24 0.00000E+00 0.00000E+00 0.00000E+00
 -1        25 0.00000E+00 0.00000E+00 0.00000E+00
 -1        26 0.00000E+00 0.00000E+00 0.00000E+00
 -1        27 0.00000E+00 0.00000E+00 0.00000E+00
 -1        28 0.00000E+00 0.00000E+00 0.00000E+00
 -1        29 0.00000E+00 0.00000E+00 0.00000E+00
 -1        30 0.00000E+00 0.00000E+00 0.00000E+00
 -1        31 0.00000E+00 0.00000E+00 0.00000E+00
 -1        32 0.00000E+00 0.00000E+00 0.00000E+00
 -1        33 0.00000E+00 0.00000E+00 0.00000E+00
 -1        34 0.00000E+00 0.00000E+00 0.00000E+00
 -1        35 0.00000E+00 0.00000E+00 0.00000E+00
 -1        36 0.00000E+00 0.00000E+00 0.00000E+00
 -1        37 1.02808E+01 3.91374E+01 2.22272E+02
 -1        38 2.67796E+00 3.91375E+01 2.22271E+02
 -1        39-4.92491E+00 3.91376E+01 2.22272E+02
 -1        40 1.40830E+01 3.91375E+01 2.22272E+02
 -1        41 6.47919E+00 3.91374E+01 2.22271E+02
 -1        42-1.12329E+00 3.91377E+01 2.22271E+02
 -1        43-8.72723E+00 3.91374E+01 2.22272E+02
 -1        44-1.38698E+01 3.91368E+01 2.22273E+02
 -1        45-1.52088E+01 3.91367E+01 2.22273E+02
 -1        46-1.65472E+01 3.91367E+01 2.22273E+02
 -1        47-1.32000E+01 3.91370E+01 2.22273E+02
 -1        48-1.45394E+01 3.91367E+01 2.22273E+02
 -1        49-1.58780E+01 3.91367E+01 2.22274E+02
 -1        50-1.72164E+01 3.91367E+01 2.22273E+02
 -1        51 4.92497E+00 3.91382E+01 2.22273E+02
 -1        52-2.67793E+00 3.91375E+01 2.22272E+02
 -1        53-1.02807E+01 3.91368E+01 2.22273E+02
 -1        54 8.72730E+00 3.91382E+01 2.22273E+02
 -1        55 1.12334E+00 3.91379E+01 2.22272E+02
 -1        56-6.47916E+00 3.91371E+01 2.22272E+02
 -1        57-1.40829E+01 3.91367E+01 2.22273E+02
 -1        58 1.65473E+01 3.91378E+01 2.22273E+02
 -1        59 1.52089E+01 3.91377E+01 2.22274E+02
 -1        60 1.38699E+01 3.91379E+01 2.22274E+02
 -1        61 1.72165E+01 3.91378E+01 2.22273E+02
 -1        62 1.58781E+01 3.91378E+01 2.22273E+02
 -1        63 1.45395E+01 3.91378E+01 2.22274E+02
 -1        64 1.32001E+01 3.91381E+01 2.22274E+02
 -1        65 1.29910E+00 5.27985E-01 5.07925E-01
 -1        66 2.50706E+00 7.66828E-01 1.48681E+00
 -1        67 3.70465E+00 1.04245E+00 3.09777E+00
 -1        68 4.85958E+00 1.41129E+00 5.30627E+00
 -1        69 5.96544E+00 1.87668E+00 8.08383E+00
 -1        70 7.01521E+00 2.43745E+00 1.14002E+01
 -1        71 8.01278E+00 3.08972E+00 1.52275E+01
 -1        72 8.95546E+00 3.82596E+00 1.95407E+01
 -1        73 9.84388E+00 4.64409E+00 2.43111E+01
 -1        74 1.06805E+01 5.53734E+00 2.95129E+01
 -1        75 1.14640E+01 6.50216E+00 3.51183E+01
 -1        76 1.21946E+01 7.53383E+00 4.11020E+01
 -1        77 1.28731E+01 8.62839E+00 4.74368E+01
 -1        78 1.35031E+01 9.77967E+00 5.40986E+01
 -1        79 1.40816E+01 1.09847E+01 6.10604E+01
 -1        80 1.46114E+01 1.22385E+01 6.82985E+01
 -1        81 1.50947E+01 1.35384E+01 7.57872E+01
 -1        82 1.55310E+01 1.48778E+01 8.35050E+01
 -1        83 1.59219E+01 1.62548E+01 9.14275E+01
 -1        84 1.62716E+01 1.76638E+01 9.95337E+01
 -1        85 1.65778E+01 1.91023E+01 1.07801E+02
 -1        86 1.68462E+01 2.05672E+01 1.16209E+02
 -1        87 1.70761E+01 2.20541E+01 1.24739E+02
 -1        88 1.72711E+01 2.35595E+01 1.33373E+02
 -1        89 1.74334E+01 2.50820E+01 1.42092E+02
 -1        90 1.75648E+01 2.66172E+01 1.50882E+02
 -1        91 1.76690E+01 2.81636E+01 1.59727E+02
 -1        92 1.77484E+01 2.97187E+01 1.68614E+02
 -1        93 1.78064E+01 3.12806E+01 1.77532E+02
 -1        94 1.78451E+01 3.28469E+01 1.86470E+02
 -1        95 1.78692E+01 3.44172E+01 1.95418E+02
 -1        96 1.78813E+01 3.59895E+01 2.04371E+02
 -1        97 1.78854E+01 3.75633E+01 2.13324E+02
 -1        98 7.01145E-01 3.74307E-01 2.63040E-01
 -1        99 1.90297E+00 6.50385E-01 9.19211E-01
 -1       100 3.10993E+00 8.94229E-01 2.21532E+00
 -1       101 4.28828E+00 1.21451E+00 4.12936E+00
 -1       102 5.41889E+00 1.63170E+00 6.62576E+00
 -1       103 6.49708E+00 2.14583E+00 9.67634E+00
 -1       104 7.52077E+00 2.75270E+00 1.32516E+01
 -1       105 8.49040E+00 3.44743E+00 1.73255E+01
 -1       106 9.40623E+00 4.22521E+00 2.18705E+01
 -1       107 1.02688E+01 5.08129E+00 2.68597E+01
 -1       108 1.10784E+01 6.01104E+00 3.22669E+01
 -1       109 1.18354E+01 7.01006E+00 3.80649E+01
 -1       110 1.25401E+01 8.07361E+00 4.42272E+01
 -1       111 1.31943E+01 9.19677E+00 5.07282E+01
 -1       112 1.37981E+01 1.03758E+01 5.75433E+01
 -1       113 1.43525E+01 1.16059E+01 6.46465E+01
 -1       114 1.48589E+01 1.28832E+01 7.20129E+01
 -1       115 1.53182E+01 1.42032E+01 7.96192E+01
 -1       116 1.57319E+01 1.55619E+01 8.74421E+01
 -1       117 1.61019E+01 1.69553E+01 9.54589E+01
 -1       118 1.64296E+01 1.83798E+01 1.03648E+02
 -1       119 1.67167E+01 1.98318E+01 1.11988E+02
 -1       120 1.69655E+01 2.13080E+01 1.20460E+02
 -1       121 1.71777E+01 2.28046E+01 1.29044E+02
 -1       122 1.73561E+01 2.43189E+01 1.37723E+02
 -1       123 1.75025E+01 2.58481E+01 1.46479E+02
 -1       124 1.76202E+01 2.73892E+01 1.55299E+02
 -1       125 1.77116E+01 2.89402E+01 1.64166E+02
 -1       126 1.77799E+01 3.04989E+01 1.73070E+02
 -1       127 1.78277E+01 3.20633E+01 1.81999E+02
 -1       128 1.78589E+01 3.36317E+01 1.90943E+02
 -1       129 1.78764E+01 3.52031E+01 1.99895E+02
 -1       130 1.78841E+01 3.67763E+01 2.08848E+02
 -1       131 1.78857E+01 3.83505E+01 2.17798E+02
 -1       132-9.10648E-01-3.78044E-01 3.48226E-01
 -1       133-1.75630E+00-2.75198E-01 1.30394E+00
 -1       134-2.59547E+00 1.64042E-02 2.91671E+00
 -1       135-3.40476E+00 4.27810E-01 5.13374E+00
 -1       136-4.17889E+00 9.40665E-01 7.91841E+00
 -1       137-4.91460E+00 1.54931E+00 1.12434E+01
 -1       138-5.61354E+00 2.24737E+00 1.50797E+01
 -1       139-6.27304E+00 3.03163E+00 1.94015E+01
 -1       140-6.89696E+00 3.89452E+00 2.41797E+01
 -1       141-7.48260E+00 4.83425E+00 2.93889E+01
 -1       142-8.03083E+00 5.84517E+00 3.50032E+01
 -1       143-8.54253E+00 6.92232E+00 4.09949E+01
 -1       144-9.01916E+00 8.05968E+00 4.73373E+01
 -1       145-9.45934E+00 9.25497E+00 5.40059E+01
 -1       146-9.86492E+00 1.05035E+01 6.09756E+01
 -1       147-1.02367E+01 1.17990E+01 6.82210E+01
 -1       148-1.05745E+01 1.31390E+01 7.57175E+01
 -1       149-1.08802E+01 1.45182E+01 8.34420E+01
 -1       150-1.11547E+01 1.59327E+01 9.13713E+01
 -1       151-1.13992E+01 1.73789E+01 9.94831E+01
 -1       152-1.16139E+01 1.88525E+01 1.07757E+02
 -1       153-1.18016E+01 2.03501E+01 1.16171E+02
 -1       154-1.19630E+01 2.18683E+01 1.24707E+02
 -1       155-1.20998E+01 2.34039E+01 1.33345E+02
 -1       156-1.22128E+01 2.49537E+01 1.42070E+02
 -1       157-1.23056E+01 2.65137E+01 1.50864E+02
 -1       158-1.23786E+01 2.80830E+01 1.59713E+02
 -1       159-1.24339E+01 2.96585E+01 1.68604E+02
 -1       160-1.24745E+01 3.12374E+01 1.77524E+02
 -1       161-1.25017E+01 3.28188E+01 1.86465E+02
 -1       162-1.25186E+01 3.44004E+01 1.95416E+02
 -1       163-1.25271E+01 3.59812E+01 2.04370E+02
 -1       164-1.25299E+01 3.75602E+01 2.13323E+02
 -1       165-4.91414E-01-3.03002E-01 1.43253E-01
 -1       166-1.33340E+00-3.57719E-01 7.41912E-01
 -1       167-2.17869E+00-1.46402E-01 2.03205E+00
 -1       168-3.00427E+00 2.08553E-01 3.95215E+00
 -1       169-3.79651E+00 6.72148E-01 6.45708E+00
 -1       170-4.55123E+00 1.23323E+00 9.51521E+00
 -1       171-5.26883E+00 1.88751E+00 1.30994E+01
 -1       172-5.94785E+00 2.62888E+00 1.71817E+01
 -1       173-6.58958E+00 3.45332E+00 2.17348E+01
 -1       174-7.19430E+00 4.35528E+00 2.67320E+01
 -1       175-7.76104E+00 5.33102E+00 3.21472E+01
 -1       176-8.29129E+00 6.37556E+00 3.79534E+01
 -1       177-8.78517E+00 7.48358E+00 4.41235E+01
 -1       178-9.24353E+00 8.65062E+00 5.06323E+01
 -1       179-9.66633E+00 9.87297E+00 5.74548E+01
 -1       180-1.00549E+01 1.11455E+01 6.45651E+01
 -1       181-1.04095E+01 1.24637E+01 7.19391E+01
 -1       182-1.07313E+01 1.38238E+01 7.95527E+01
 -1       183-1.10213E+01 1.52211E+01 8.73823E+01
 -1       184-1.12805E+01 1.66522E+01 9.54058E+01
 -1       185-1.15099E+01 1.81122E+01 1.03601E+02
 -1       186-1.17111E+01 1.95986E+01 1.11947E+02
 -1       187-1.18854E+01 2.11069E+01 1.20425E+02
 -1       188-1.20342E+01 2.26342E+01 1.29014E+02
 -1       189-1.21590E+01 2.41770E+01 1.37698E+02
 -1       190-1.22617E+01 2.57324E+01 1.46459E+02
 -1       191-1.23442E+01 2.72975E+01 1.55282E+02
 -1       192-1.24082E+01 2.88700E+01 1.64154E+02
 -1       193-1.24560E+01 3.04476E+01 1.73061E+02
 -1       194-1.24894E+01 3.20279E+01 1.81993E+02
 -1       195-1.25113E+01 3.36096E+01 1.90939E+02
 -1       196-1.25237E+01 3.51910E+01 1.99893E+02
 -1       197-1.25290E+01 3.67709E+01 2.08847E+02
 -1       198-1.25301E+01 3.83488E+01 2.17798E+02
 -1       199 9.10263E-01-3.78143E-01 3.48703E-01
 -1       200 1.75726E+00-2.74314E-01 1.30401E+00
 -1       201 2.59521E+00 1.68199E-02 2.91708E+00
 -1       202 3.40505E+00 4.28039E-01 5.13421E+00
 -1       203 4.17898E+00 9.41468E-01 7.91972E+00
 -1       204 4.91526E+00 1.54988E+00 1.12443E+01
 -1       205 5.61330E+00 2.24833E+00 1.50808E+01
 -1       206 6.27345E+00 3.03225E+00 1.94021E+01
 -1       207 6.89693E+00 3.89514E+00 2.41797E+01
 -1       208 7.48246E+00 4.83488E+00 2.93896E+01
 -1       209 8.03081E+00 5.84584E+00 3.50038E+01
 -1       210 8.54255E+00 6.92297E+00 4.09955E+01
 -1       211 9.01908E+00 8.06030E+00 4.73379E+01
 -1       212 9.45973E+00 9.25621E+00 5.40070E+01
 -1       213 9.86551E+00 1.05037E+01 6.09764E+01
 -1       214 1.02367E+01 1.17997E+01 6.82212E+01
 -1       215 1.05745E+01 1.31397E+01 7.57182E+01
 -1       216 1.08803E+01 1.45189E+01 8.34427E+01
 -1       217 1.11550E+01 1.59333E+01 9.13717E+01
 -1       218 1.13991E+01 1.73795E+01 9.94837E+01
 -1       219 1.16142E+01 1.88534E+01 1.07758E+02
 -1       220 1.18016E+01 2.03513E+01 1.16172E+02
 -1       221 1.19629E+01 2.18695E+01 1.24708E+02
 -1       222 1.20996E+01 2.34050E+01 1.33346E+02
 -1       223 1.22130E+01 2.49547E+01 1.42071E+02
 -1       224 1.23056E+01 2.65147E+01 1.50865E+02
 -1       225 1.23785E+01 2.80841E+01 1.59714E+02
 -1       226 1.24341E+01 2.96592E+01 1.68605E+02
 -1       227 1.24746E+01 3.12385E+01 1.77526E+02
 -1       228 1.25019E+01 3.28198E+01 1.86466E+02
 -1       229 1.25185E+01 3.44014E+01 1.95417E+02
 -1       230 1.25270E+01 3.59823E+01 2.04371E+02
 -1       231 1.25299E+01 3.75612E+01 2.13324E+02
 -1       232 4.91587E-01-3.02398E-01 1.44253E-01
 -1       233 1.33380E+00-3.57382E-01 7.42453E-01
 -1       234 2.17914E+00-1.46182E-01 2.03246E+00
 -1       235 3.00417E+00 2.09091E-01 3.95260E+00
 -1       236 3.79641E+00 6.72727E-01 6.45756E+00
 -1       237 4.55147E+00 1.23413E+00 9.51608E+00
 -1       238 5.26893E+00 1.88803E+00 1.31001E+01
 -1       239 5.94807E+00 2.62971E+00 1.71825E+01
 -1       240 6.58991E+00 3.45377E+00 2.17354E+01
 -1       241 7.19418E+00 4.35587E+00 2.67326E+01
 -1       242 7.76096E+00 5.33166E+00 3.21479E+01
 -1       243 8.29131E+00 6.37622E+00 3.79540E+01
 -1       244 8.78517E+00 7.48420E+00 4.41241E+01
 -1       245 9.24350E+00 8.65147E+00 5.06331E+01
 -1       246 9.66678E+00 9.87378E+00 5.74555E+01
 -1       247 1.00552E+01 1.11460E+01 6.45657E+01
 -1       248 1.04094E+01 1.24644E+01 7.19397E+01
 -1       249 1.07313E+01 1.38245E+01 7.95533E+01
 -1       250 1.10215E+01 1.52219E+01 8.73830E+01
 -1       251 1.12805E+01 1.66527E+01 9.54064E+01
 -1       252 1.15099E+01 1.81132E+01 1.03602E+02
 -1       253 1.17113E+01 1.95996E+01 1.11948E+02
 -1       254 1.18854E+01 2.11080E+01 1.20426E+02
 -1       255 1.20342E+01 2.26352E+01 1.29015E+02
 -1       256 1.21591E+01 2.41781E+01 1.37699E+02
 -1       257 1.22619E+01 2.57334E+01 1.46460E+02
 -1       258 1.23442E+01 2.72985E+01 1.55283E+02
 -1       259 1.24082E+01 2.88709E+01 1.64155E+02
 -1       260 1.24560E+01 3.04485E+01 1.73062E+02
 -1       261 1.24897E+01 3.20290E+01 1.81994E+02
 -1       262 1.25114E+01 3.36106E+01 1.90940E+02
 -1       263 1.25236E+01 3.51921E+01 1.99894E+02
 -1       264 1.25290E+01 3.67720E+01 2.08848E+02
 -1       265 1.25301E+01 3.83499E+01 2.17799E+02
 -1       266-1.29918E+00 5.27906E-01 5.08894E-01
 -1       267-2.50776E+00 7.65744E-01 1.48768E+00
 -1       268-3.70465E+00 1.04256E+00 3.09727E+00
 -1       269-4.85979E+00 1.41050E+00 5.30691E+00
 -1       270-5.96533E+00 1.87628E+00 8.08476E+00
 -1       271-7.01504E+00 2.43675E+00 1.14008E+01
 -1       272-8.01274E+00 3.08896E+00 1.52282E+01
 -1       273-8.95544E+00 3.82527E+00 1.95413E+01
 -1       274-9.84383E+00 4.64343E+00 2.43118E+01
 -1       275-1.06804E+01 5.53669E+00 2.95135E+01
 -1       276-1.14638E+01 6.50150E+00 3.51189E+01
 -1       277-1.21945E+01 7.53285E+00 4.11033E+01
 -1       278-1.28731E+01 8.62768E+00 4.74375E+01
 -1       279-1.35031E+01 9.77902E+00 5.40992E+01
 -1       280-1.40816E+01 1.09840E+01 6.10610E+01
 -1       281-1.46112E+01 1.22379E+01 6.82991E+01
 -1       282-1.50947E+01 1.35375E+01 7.57884E+01
 -1       283-1.55311E+01 1.48773E+01 8.35054E+01
 -1       284-1.59226E+01 1.62541E+01 9.14280E+01
 -1       285-1.62714E+01 1.76629E+01 9.95343E+01
 -1       286-1.65780E+01 1.91016E+01 1.07802E+02
 -1       287-1.68461E+01 2.05662E+01 1.16210E+02
 -1       288-1.70759E+01 2.20529E+01 1.24740E+02
 -1       289-1.72710E+01 2.35584E+01 1.33374E+02
 -1       290-1.74333E+01 2.50809E+01 1.42093E+02
 -1       291-1.75648E+01 2.66161E+01 1.50883E+02
 -1       292-1.76690E+01 2.81626E+01 1.59728E+02
 -1       293-1.77484E+01 2.97178E+01 1.68615E+02
 -1       294-1.78063E+01 3.12796E+01 1.77533E+02
 -1       295-1.78451E+01 3.28460E+01 1.86471E+02
 -1       296-1.78691E+01 3.44160E+01 1.95419E+02
 -1       297-1.78812E+01 3.59884E+01 2.04373E+02
 -1       298-1.78854E+01 3.75622E+01 2.13325E+02
 -1       299-7.02063E-01 3.73717E-01 2.63316E-01
 -1       300-1.90339E+00 6.49523E-01 9.20524E-01
 -1       301-3.11031E+00 8.94162E-01 2.21574E+00
 -1       302-4.28815E+00 1.21428E+00 4.12957E+00
 -1       303-5.41907E+00 1.63108E+00 6.62632E+00
 -1       304-6.49668E+00 2.14513E+00 9.67700E+00
 -1       305-7.52069E+00 2.75195E+00 1.32523E+01
 -1       306-8.49037E+00 3.44671E+00 1.73262E+01
 -1       307-9.40619E+00 4.22453E+00 2.18712E+01
 -1       308-1.02688E+01 5.08063E+00 2.68604E+01
 -1       309-1.10783E+01 6.01040E+00 3.22676E+01
 -1       310-1.18353E+01 7.00926E+00 3.80657E+01
 -1       311-1.25403E+01 8.07268E+00 4.42280E+01
 -1       312-1.31943E+01 9.19608E+00 5.07289E+01
 -1       313-1.37981E+01 1.03752E+01 5.75439E+01
 -1       314-1.43524E+01 1.16053E+01 6.46471E+01
 -1       315-1.48587E+01 1.28824E+01 7.20136E+01
 -1       316-1.53182E+01 1.42025E+01 7.96199E+01
 -1       317-1.57322E+01 1.55615E+01 8.74426E+01
 -1       318-1.61019E+01 1.69546E+01 9.54596E+01
 -1       319-1.64297E+01 1.83790E+01 1.03649E+02
 -1       320-1.67168E+01 1.98309E+01 1.11989E+02
 -1       321-1.69654E+01 2.13069E+01 1.20461E+02
 -1       322-1.71776E+01 2.28035E+01 1.29045E+02
 -1       323-1.73561E+01 2.43178E+01 1.37724E+02
 -1       324-1.75024E+01 2.58470E+01 1.46480E+02
 -1       325-1.76201E+01 2.73882E+01 1.55300E+02
 -1       326-1.77116E+01 2.89392E+01 1.64167E+02
 -1       327-1.77799E+01 3.04979E+01 1.73071E+02
 -1       328-1.78276E+01 3.20623E+01 1.82000E+02
 -1       329-1.78588E+01 3.36307E+01 1.90944E+02
 -1       330-1.78764E+01 3.52020E+01 1.99896E+02
 -1       331-1.78840E+01 3.67752E+01 2.08849E+02
 -1       332-1.78856E+01 3.83494E+01 2.17800E+02
 -1       333 0.00000E+00 0.00000E+00 0.00000E+00
 -1       334 0.00000E+00 0.00000E+00 0.00000E+00
 -1       335 0.00000E+00 0.00000E+00 0.00000E+00
 -1       336 0.00000E+00 0.00000E+00 0.00000E+00
 -1       337 0.00000E+00 0.00000E+00 0.00000E+00
 -1       338 0.00000E+00 0.00000E+00 0.00000E+00
 -1       339 0.00000E+00 0.00000E+00 0.00000E+00
 -1       340 0.00000E+00 0.00000E+00 0.00000E+00
 -1       341 0.00000E+00 0.00000E+00 0.00000E+00
 -1       342 0.00000E+00 0.00000E+00 0.00000E+00
 -1       343 0.00000E+00 0.00000E+00 0.00000E+00
 -1       344 0.00000E+00 0.00000E+00 0.00000E+00
 -1       345 0.00000E+00 0.00000E+00 0.00000E+00
 -1       346 0.00000E+00 0.00000E+00 0.00000E+00
 -1       347 0.00000E+00 0.00000E+00 0.00000E+00
 -1       348 0.00000E+00 0.00000E+00 0.00000E+00
 -1       349 0.00000E+00 0.00000E+00 0.00000E+00
 -1       350 0.00000E+00 0.00000E+00 0.00000E+00
 -1       351 0.00000E+00 0.00000E+00 0.00000E+00
 -1       352 0.00000E+00 0.00000E+00 0.00000E+00
 -1       353 0.00000E+00 0.00000E+00 0.00000E+00
 -1       354 0.00000E+00 0.00000E+00 0.00000E+00
 -1       355 0.00000E+00 0.00000E+00 0.00000E+00
 -1       356 0.00000E+00 0.00000E+00 0.00000E+00
 -1       357 0.00000E+00 0.00000E+00 0.00000E+00
 -1       358 0.00000E+00 0.00000E+00 0.00000E+00
 -1       359 0.00000E+00 0.00000E+00 0.00000E+00
 -1       360 0.00000E+00 0.00000E+00 0.00000E+00
 -1       361 0.00000E+00 0.00000E+00 0.00000E+00
 -1       362 0.00000E+00 0.00000E+00 0.00000E+00
 -1       363 0.00000E+00 0.00000E+00 0.00000E+00
 -1       364 0.00000E+00 0.00000E+00 0.00000E+00
 -1       365 0.00000E+00 0.00000E+00 0.00000E+00
 -1       366 0.00000E+00 0.00000E+00 0.00000E+00
 -1       367 0.00000E+00 0.00000E+00 0.00000E+00
 -1       368 0.00000E+00 0.00000E+00 0.00000E+00
 -1       369 0.00000E+00 0.00000E+00 0.00000E+00
 -1       370 0.00000E+00 0.00000E+00 0.00000E+00
 -1       371 0.00000E+00 0.00000E+00 0.00000E+00
 -1       372 0.00000E+00 0.00000E+00 0.00000E+00
 -1       373 0.00000E+00 0.00000E+00 0.00000E+00
 -1       374 0.00000E+00 0.00000E+00 0.00000E+00
 -1       375 0.00000E+00 0.00000E+00 0.00000E+00
 -1       376 0.00000E+00 0.00000E+00 0.00000E+00
 -1       377 0.00000E+00 0.00000E+00 0.00000E+00
 -1       378 0.00000E+00 0.00000E+00 0.00000E+00
 -1       379 0.00000E+00 0.00000E+00 0.00000E+00
 -1       380 0.00000E+00 0.00000E+00 0.00000E+00
 -1       381 0.00000E+00 0.00000E+00 0.00000E+00
 -1       382 0.00000E+00 0.00000E+00 0.00000E+00
 -1       383 0.00000E+00 0.00000E+00 0.00000E+00
 -1       384 0.00000E+00 0.00000E+00 0.00000E+00
 -1       385 0.00000E+00 0.00000E+00 0.00000E+00
 -1       386 0.00000E+00 0.00000E+00 0.00000E+00
 -1       387 0.00000E+00 0.00000E+00 0.00000E+00
 -1       388 0.00000E+00 0.00000E+00 0.00000E+00
 -1       389 0.00000E+00 0.00000E+00 0.00000E+00
 -1       390 0.00000E+00 0.00000E+00 0.00000E+00
 -1       391 0.00000E+00 0.00000E+00 0.00000E+00
 -1       392 0.00000E+00 0.00000E+00 0.00000E+00
 -1       393 0.00000E+00 0.00000E+00 0.00000E+00
 -1       394 0.00000E+00 0.00000E+00 0.00000E+00
 -1       395 0.00000E+00 0.00000E+00 0.00000E+00
 -1       396 0.00000E+00 0.00000E+00 0.00000E+00
 -1       397 0.00000E+00 0.00000E+00 0.00000E+00
 -1       398 0.00000E+00 0.00000E+00 0.00000E+00
 -1       399 0.00000E+00 0.00000E+00 0.00000E+00
 -1       400 0.00000E+00 0.00000E+00 0.00000E+00
 -1       401 0.00000E+00 0.00000E+00 0.00000E+00
 -1       402 0.00000E+00 0.00000E+00 0.00000E+00
 -1       403 0.00000E+00 0.00000E+00 0.00000E+00
 -1       404 0.00000E+00 0.00000E+00 0.00000E+00
 -1       405 0.00000E+00 0.00000E+00 0.00000E+00
 -1       406-8.96955E+00 3.91369E+01 2.22273E+02
 -1       407 8.17457E+00 3.91376E+01 2.22273E+02
 -1       408-2.66329E+00 3.91374E+01 2.22272E+02
 -1       409 9.44593E+00 3.91375E+01 2.22273E+02
 -1       410 2.91305E+00 3.91374E+01 2.22272E+02
 -1       411 1.77306E+00 3.91376E+01 2.22272E+02
 -1       412-8.53238E+00 3.91370E+01 2.22273E+02
 -1       413 4.73385E+00 3.91374E+01 2.22272E+02
 -1       414-5.69593E+00 3.91372E+01 2.22272E+02
 -1       415-2.72682E+00 3.91372E+01 2.22272E+02
 -1       416-7.94330E+00 3.91372E+01 2.22272E+02
 -1       417 7.94337E+00 3.91379E+01 2.22273E+02
 -1       418 1.13385E+01 3.91375E+01 2.22272E+02
 -1       419-1.13922E+01 3.91369E+01 2.22273E+02
 -1       420-2.54110E+00 3.91372E+01 2.22272E+02
 -1       421-6.43415E+00 3.91375E+01 2.22272E+02
 -1       422-1.02366E+01 3.91372E+01 2.22273E+02
 -1       423-1.09065E+01 3.91370E+01 2.22273E+02
 -1       424 1.46120E+01 3.91376E+01 2.22272E+02
 -1       425 1.08096E+01 3.91375E+01 2.22272E+02
 -1       426 1.39428E+01 3.91376E+01 2.22273E+02
 -1       427-1.39696E+01 3.91368E+01 2.22273E+02
 -1       428-1.46388E+01 3.91368E+01 2.22273E+02
 -1       429-1.08365E+01 3.91369E+01 2.22273E+02
 -1       430 6.43418E+00 3.91381E+01 2.22273E+02
 -1       431 1.02367E+01 3.91381E+01 2.22273E+02
 -1       432 1.09066E+01 3.91379E+01 2.22274E+02
 -1       433 7.50732E+00 3.91374E+01 2.22272E+02
 -1       434 3.70580E+00 3.91375E+01 2.22271E+02
 -1       435 8.03601E+00 3.91375E+01 2.22272E+02
 -1       436 7.41428E-03 3.91375E+01 2.22271E+02
 -1       437-3.79414E+00 3.91376E+01 2.22272E+02
 -1       438 1.03532E+00 3.91374E+01 2.22272E+02
 -1       439-5.30317E+00 3.91374E+01 2.22272E+02
 -1       440-1.12010E+01 3.91369E+01 2.22273E+02
 -1       441-1.18705E+01 3.91368E+01 2.22273E+02
 -1       442-8.23789E+00 3.91371E+01 2.22273E+02
 -1       443-1.20890E+01 3.91368E+01 2.22273E+02
 -1       444-1.27583E+01 3.91368E+01 2.22273E+02
 -1       445-8.75102E+00 3.91369E+01 2.22273E+02
 -1       446-1.01809E+01 3.91369E+01 2.22273E+02
 -1       447-4.52498E-01 3.91376E+01 2.22272E+02
 -1       448 3.34908E+00 3.91379E+01 2.22272E+02
 -1       449 4.85806E+00 3.91378E+01 2.22273E+02
 -1       450-7.98833E+00 3.91370E+01 2.22272E+02
 -1       451-4.18684E+00 3.91373E+01 2.22272E+02
 -1       452-1.96143E+00 3.91374E+01 2.22272E+02
 -1       453-8.54395E+00 3.91370E+01 2.22273E+02
 -1       454 1.23273E+01 3.91376E+01 2.22273E+02
 -1       455 1.29965E+01 3.91376E+01 2.22273E+02
 -1       456 1.03922E+01 3.91375E+01 2.22273E+02
 -1       457 1.10222E+01 3.91378E+01 2.22273E+02
 -1       458 1.16917E+01 3.91377E+01 2.22273E+02
 -1       459 8.81029E+00 3.91376E+01 2.22273E+02
 -1       460 8.05903E+00 3.91378E+01 2.22273E+02
 -1       461-5.53662E+00 3.91371E+01 2.22272E+02
 -1       462-5.75527E+00 3.91371E+01 2.22273E+02
 -1       463-5.84808E+00 3.91371E+01 2.22273E+02
 -1       464-4.21139E+00 3.91372E+01 2.22272E+02
 -1       465-7.33268E+00 3.91370E+01 2.22273E+02
 -1       466-2.63397E+00 3.91372E+01 2.22272E+02
 -1       467 5.54369E+00 3.91375E+01 2.22273E+02
 -1       468 6.17941E+00 3.91375E+01 2.22272E+02
 -1       469 4.97373E+00 3.91376E+01 2.22273E+02
 -1       470 2.34313E+00 3.91375E+01 2.22272E+02
 -1       471-5.59777E+00 3.91372E+01 2.22272E+02
 -1       472-2.60226E+00 3.91373E+01 2.22272E+02
 -1       473 1.09641E+00 3.91373E+01 2.22272E+02
 -1       474 3.82347E+00 3.91374E+01 2.22272E+02
 -1       475 7.08978E+00 3.91375E+01 2.22272E+02
 -1       476-4.76835E-01 3.91374E+01 2.22272E+02
 -1       477 9.30972E-02 3.91373E+01 2.22272E+02
 -1       478 1.85956E-01 3.91373E+01 2.22272E+02
 -1       479 9.72469E+00 2.27669E+01 1.29004E+02
 -1       480 1.00314E+01 2.89248E+01 1.64150E+02
 -1       481-4.92504E+00 3.51780E+01 1.99798E+02
 -1       482 9.11201E+00 1.68884E+01 9.53878E+01
 -1       483-4.45406E+00 1.96657E+01 1.11913E+02
 -1       484-4.66877E+00 2.57656E+01 1.46442E+02
 -1       485-4.76037E+00 3.20380E+01 1.81987E+02
 -1       486-4.07710E+00 1.39331E+01 7.94974E+01
 -1       487 3.67820E+00 1.94430E+00 9.45903E+00
 -1       488 4.79351E+00 3.26639E+00 1.71336E+01
 -1       489-1.12485E+00 4.98102E-01 3.80667E+00
 -1       490 6.69021E+00 6.86969E+00 3.79159E+01
 -1       491 7.81998E+00 1.02592E+01 5.73936E+01
 -1       492 5.80166E+00 4.92070E+00 2.66897E+01
 -1       493-4.76418E-01-7.71485E-02 5.38835E-01
 -1       494 1.74494E+00 6.64416E-01 1.97049E+00
 -1       495 1.00472E+01 3.68487E+01 2.09265E+02
 -1       496 8.40558E+00 1.27904E+01 7.19149E+01
 -1       497 1.01184E+01 3.36270E+01 1.90937E+02
 -1       498-1.98810E+00 2.13640E+00 1.29742E+01
 -1       499-3.33283E+00 7.65334E+00 4.40384E+01
 -1       500-3.91363E+00 1.12720E+01 6.44756E+01
 -1       501-2.49380E+00 3.67543E+00 2.16233E+01
 -1       502-2.94059E+00 5.52710E+00 3.20484E+01
 -1       503 3.09873E-01 1.77147E-01 3.83095E-02
 -1       504-9.06164E-01 3.80250E+01 2.15955E+02
 -1       505-4.57908E+00 2.26829E+01 1.28989E+02
 -1       506-4.72659E+00 2.88902E+01 1.64143E+02
 -1       507-4.28791E+00 1.67392E+01 9.53620E+01
 -1       508 9.46217E+00 1.97803E+01 1.11934E+02
 -1       509 9.91093E+00 2.58223E+01 1.46452E+02
 -1       510-8.19766E-01 1.49774E-01 1.87461E+00
 -1       511 2.41423E+00 9.90916E-01 3.88378E+00
 -1       512 3.06944E+00 1.42017E+00 6.39487E+00
 -1       513 8.86270E-01 1.44813E+00 7.76024E+00
 -1       514 1.01720E+01 3.52071E+01 1.99929E+02
 -1       515 9.82668E+00 2.42876E+01 1.37689E+02
 -1       516-4.62794E+00 2.42180E+01 1.37677E+02
 -1       517-4.00242E+00 1.25836E+01 7.18762E+01
 -1       518 8.66682E+00 1.41193E+01 7.95302E+01
 -1       519-4.37701E+00 1.81894E+01 1.03562E+02
 -1       520 9.29851E+00 1.83206E+01 1.03585E+02
 -1       521 5.31279E+00 4.05428E+00 2.16890E+01
 -1       522 7.09011E+00 7.94293E+00 4.40883E+01
 -1       523 7.49884E+00 9.07606E+00 5.05961E+01
 -1       524 1.95961E+00 9.52708E+00 5.38525E+01
 -1       525-3.14285E+00 6.55844E+00 3.78612E+01
 -1       526-4.70084E+00 2.73238E+01 1.55269E+02
 -1       527 9.97850E+00 2.73690E+01 1.55277E+02
 -1       528 8.17683E+00 1.14984E+01 6.45006E+01
 -1       529-4.77010E+00 3.36159E+01 1.90936E+02
 -1       530 1.00996E+01 3.20554E+01 1.81990E+02
 -1       531-2.72363E+00 4.56431E+00 2.66269E+01
 -1       532-2.24784E+00 2.86496E+00 1.70628E+01
 -1       533 1.00711E+01 3.04876E+01 1.73058E+02
 -1       534 4.25469E+00 2.56186E+00 1.30495E+01
 -1       535-4.74618E+00 3.04622E+01 1.73054E+02
 -1       536 8.90199E+00 1.54865E+01 8.73617E+01
 -1       537 6.26058E+00 5.86092E+00 3.21077E+01
 -1       538-4.18842E+00 1.53193E+01 8.73327E+01
 -1       539 9.60370E+00 2.12633E+01 1.20412E+02
 -1       540-4.52141E+00 2.11647E+01 1.20395E+02
 -1       541 3.90877E-01 3.04558E-01 1.19944E+00
 -1       542 5.54710E-01 5.74236E-01 2.75098E+00
 -1       543-1.76917E+00 1.50303E+00 9.44652E+00
 -1       544-6.57968E-02-2.89088E-02 2.23518E-02
 -1       545-3.62277E+00 8.80310E+00 5.05430E+01
 -1       546 2.05816E+00 1.07594E+01 6.08701E+01
 -1       547 2.59157E+00 3.59021E+01 2.03893E+02
 -1       548-1.46180E+00 9.33562E-01 6.26377E+00
 -1       549 2.66866E+00 3.44058E+01 1.95391E+02
 -1       550 1.05184E+00 2.03267E+00 1.11005E+01
 -1       551 2.64619E+00 2.81268E+01 1.59700E+02
 -1       552 2.63086E+00 2.65703E+01 1.50847E+02
 -1       553 2.52311E+00 2.04682E+01 1.16135E+02
 -1       554 2.65781E+00 2.96911E+01 1.68593E+02
 -1       555 2.38505E+00 1.61077E+01 9.13181E+01
 -1       556 2.55773E+00 2.19693E+01 1.24676E+02
 -1       557 2.48309E+00 1.89885E+01 1.07716E+02
 -1       558 2.43752E+00 1.75339E+01 9.94368E+01
 -1       559 2.67213E+00 3.28341E+01 1.86460E+02
 -1       560 2.66660E+00 3.12608E+01 1.77517E+02
 -1       561 2.61079E+00 2.50231E+01 1.42048E+02
 -1       562 2.32645E+00 1.47138E+01 8.33834E+01
 -1       563 2.16614E+00 1.20354E+01 6.81337E+01
 -1       564 1.20098E+00 2.70543E+00 1.49433E+01
 -1       565 1.34191E+00 3.46368E+00 1.92729E+01
 -1       566 1.60059E+00 5.21665E+00 2.92751E+01
 -1       567 1.71799E+00 6.20234E+00 3.48967E+01
 -1       568 1.47619E+00 4.30241E+00 2.40579E+01
 -1       569 1.82678E+00 7.25491E+00 4.08958E+01
 -1       570 2.58685E+00 2.34886E+01 1.33320E+02