    1C
    1UUSER                                                              
    1UDATE              28.august.2022                                  
    1UTIME              12:58:47                                        
    1UHOST                                                              
    1UPGM               CalculiX                                        
    1UVERSION           Version 2.19                             
    1UCOMPILETIME       Sat Dec 18 23:10:56     2021                    
    1UDIR                                                               
    1UDBN                                                               
    1UMAT    1STEEL                                                     
    2C                           467                                     1
 -1         1 0.00000E+00 0.00000E+00 1.00000E+01
 -1         2 0.00000E+00 0.00000E+00 0.00000E+00
 -1         3 0.00000E+00 1.00000E+01 1.00000E+01
 -1         4 0.00000E+00 1.00000E+01 0.00000E+00
 -1         5 1.00000E+02 0.00000E+00 1.00000E+01
 -1         6 1.00000E+02 0.00000E+00 0.00000E+00
 -1         7 1.00000E+02 1.00000E+01 1.00000E+01
 -1         8 1.00000E+02 1.00000E+01 0.00000E+00
 -1         9 0.00000E+00 0.00000E+00 5.00000E+00
 -1        10 0.00000E+00 5.00000E+00 1.00000E+01
 -1        11 0.00000E+00 1.00000E+01 5.00000E+00
 -1        12 0.00000E+00 5.00000E+00 0.00000E+00
 -1        13 1.00000E+02 0.00000E+00 5.00000E+00
 -1        14 1.00000E+02 5.00000E+00 1.00000E+01
 -1        15 1.00000E+02 1.00000E+01 5.00000E+00
 -1        16 1.00000E+02 5.00000E+00 0.00000E+00
 -1        17 1.00000E+01 0.00000E+00 0.00000E+00
 -1        18 2.00000E+01 0.00000E+00 0.00000E+00
 -1        19 3.00000E+01 0.00000E+00 0.00000E+00
 -1        20 4.00000E+01 0.00000E+00 0.00000E+00
 -1        21 5.00000E+01 0.00000E+00 0.00000E+00
 -1        22 6.00000E+01 0.00000E+00 0.00000E+00
 -1        23 7.00000E+01 0.00000E+00 0.00000E+00
 -1        24 8.00000E+01 0.00000E+00 0.00000E+00
 -1        25 9.00000E+01 0.00000E+00 0.00000E+00
 -1        26 5.00000E+00 0.00000E+00 0.00000E+00
 -1        27 1.50000E+01 0.00000E+00 0.00000E+00
 -1        28 2.50000E+01 0.00000E+00 0.00000E+00
 -1        29 3.50000E+01 0.00000E+00 0.00000E+00
 -1        30 4.50000E+01 0.00000E+00 0.00000E+00
 -1        31 5.50000E+01 0.00000E+00 0.00000E+00
 -1        32 6.50000E+01 0.00000E+00 0.00000E+00
 -1        33 7.50000E+01 0.00000E+00 0.00000E+00
 -1        34 8.50000E+01 0.00000E+00 0.00000E+00
 -1        35 9.50000E+01 0.00000E+00 0.00000E+00
 -1        36 1.00000E+01 0.00000E+00 1.00000E+01
 -1        37 2.00000E+01 0.00000E+00 1.00000E+01
 -1        38 3.00000E+01 0.00000E+00 1.00000E+01
 -1        39 4.00000E+01 0.00000E+00 1.00000E+01
 -1        40 5.00000E+01 0.00000E+00 1.00000E+01
 -1        41 6.00000E+01 0.00000E+00 1.00000E+01
 -1        42 7.00000E+01 0.00000E+00 1.00000E+01
 -1        43 8.00000E+01 0.00000E+00 1.00000E+01
 -1        44 9.00000E+01 0.00000E+00 1.00000E+01
 -1        45 5.00000E+00 0.00000E+00 1.00000E+01
 -1        46 1.50000E+01 0.00000E+00 1.00000E+01
 -1        47 2.50000E+01 0.00000E+00 1.00000E+01
 -1        48 3.50000E+01 0.00000E+00 1.00000E+01
 -1        49 4.50000E+01 0.00000E+00 1.00000E+01
 -1        50 5.50000E+01 0.00000E+00 1.00000E+01
 -1        51 6.50000E+01 0.00000E+00 1.00000E+01
 -1        52 7.50000E+01 0.00000E+00 1.00000E+01
 -1        53 8.50000E+01 0.00000E+00 1.00000E+01
 -1        54 9.50000E+01 0.00000E+00 1.00000E+01
 -1        55 1.00000E+01 1.00000E+01 0.00000E+00
 -1        56 2.00000E+01 1.00000E+01 0.00000E+00
 -1        57 3.00000E+01 1.00000E+01 0.00000E+00
 -1        58 4.00000E+01 1.00000E+01 0.00000E+00
 -1        59 5.00000E+01 1.00000E+01 0.00000E+00
 -1        60 6.00000E+01 1.00000E+01 0.00000E+00
 -1        61 7.00000E+01 1.00000E+01 0.00000E+00
 -1        62 8.00000E+01 1.00000E+01 0.00000E+00
 -1        63 9.00000E+01 1.00000E+01 0.00000E+00
 -1        64 5.00000E+00 1.00000E+01 0.00000E+00
 -1        65 1.50000E+01 1.00000E+01 0.00000E+00
 -1        66 2.50000E+01 1.00000E+01 0.00000E+00
 -1        67 3.50000E+01 1.00000E+01 0.00000E+00
 -1        68 4.50000E+01 1.00000E+01 0.00000E+00
 -1        69 5.50000E+01 1.00000E+01 0.00000E+00
 -1        70 6.50000E+01 1.00000E+01 0.00000E+00
 -1        71 7.50000E+01 1.00000E+01 0.00000E+00
 -1        72 8.50000E+01 1.00000E+01 0.00000E+00
 -1        73 9.50000E+01 1.00000E+01 0.00000E+00
 -1        74 1.00000E+01 1.00000E+01 1.00000E+01
 -1        75 2.00000E+01 1.00000E+01 1.00000E+01
 -1        76 3.00000E+01 1.00000E+01 1.00000E+01
 -1        77 4.00000E+01 1.00000E+01 1.00000E+01
 -1        78 5.00000E+01 1.00000E+01 1.00000E+01
 -1        79 6.00000E+01 1.00000E+01 1.00000E+01
 -1        80 7.00000E+01 1.00000E+01 1.00000E+01
 -1        81 8.00000E+01 1.00000E+01 1.00000E+01
 -1        82 9.00000E+01 1.00000E+01 1.00000E+01
 -1        83 5.00000E+00 1.00000E+01 1.00000E+01
 -1        84 1.50000E+01 1.00000E+01 1.00000E+01
 -1        85 2.50000E+01 1.00000E+01 1.00000E+01
 -1        86 3.50000E+01 1.00000E+01 1.00000E+01
 -1        87 4.50000E+01 1.00000E+01 1.00000E+01
 -1        88 5.50000E+01 1.00000E+01 1.00000E+01
 -1        89 6.50000E+01 1.00000E+01 1.00000E+01
 -1        90 7.50000E+01 1.00000E+01 1.00000E+01
 -1        91 8.50000E+01 1.00000E+01 1.00000E+01
 -1        92 9.50000E+01 1.00000E+01 1.00000E+01
 -1        93 0.00000E+00 5.00000E+00 5.00000E+00
 -1        94 0.00000E+00 2.50000E+00 7.50000E+00
 -1        95 0.00000E+00 2.50000E+00 2.50000E+00
 -1        96 0.00000E+00 7.50000E+00 7.50000E+00
 -1        97 0.00000E+00 7.50000E+00 2.50000E+00
 -1        98 1.00000E+02 5.00000E+00 5.00000E+00
 -1        99 1.00000E+02 2.50000E+00 2.50000E+00
 -1       100 1.00000E+02 2.50000E+00 7.50000E+00
 -1       101 1.00000E+02 7.50000E+00 7.50000E+00
 -1       102 1.00000E+02 7.50000E+00 2.50000E+00
 -1       103 1.50000E+01 0.00000E+00 5.00000E+00
 -1       104 2.50000E+01 0.00000E+00 5.00000E+00
 -1       105 3.50000E+01 0.00000E+00 5.00000E+00
 -1       106 4.50000E+01 0.00000E+00 5.00000E+00
 -1       107 5.50000E+01 0.00000E+00 5.00000E+00
 -1       108 6.50000E+01 0.00000E+00 5.00000E+00
 -1       109 7.50000E+01 0.00000E+00 5.00000E+00
 -1       110 8.50000E+01 0.00000E+00 5.00000E+00
 -1       111 5.00000E+00 0.00000E+00 5.00000E+00
 -1       112 9.50000E+01 0.00000E+00 5.00000E+00
 -1       113 2.50000E+00 0.00000E+00 2.50000E+00
 -1       114 2.50000E+00 0.00000E+00 7.50000E+00
 -1       115 7.50000E+00 0.00000E+00 7.50000E+00
 -1       116 7.50000E+00 0.00000E+00 2.50000E+00
 -1       117 9.75000E+01 0.00000E+00 7.50000E+00
 -1       118 9.75000E+01 0.00000E+00 2.50000E+00
 -1       119 9.25000E+01 0.00000E+00 7.50000E+00
 -1       120 9.25000E+01 0.00000E+00 2.50000E+00
 -1       121 1.75000E+01 0.00000E+00 2.50000E+00
 -1       122 1.25000E+01 0.00000E+00 2.50000E+00
 -1       123 1.00000E+01 0.00000E+00 5.00000E+00
 -1       124 1.25000E+01 0.00000E+00 7.50000E+00
 -1       125 2.75000E+01 0.00000E+00 2.50000E+00
 -1       126 2.25000E+01 0.00000E+00 2.50000E+00
 -1       127 2.00000E+01 0.00000E+00 5.00000E+00
 -1       128 1.75000E+01 0.00000E+00 7.50000E+00
 -1       129 2.25000E+01 0.00000E+00 7.50000E+00
 -1       130 3.75000E+01 0.00000E+00 2.50000E+00
 -1       131 3.25000E+01 0.00000E+00 2.50000E+00
 -1       132 3.00000E+01 0.00000E+00 5.00000E+00
 -1       133 2.75000E+01 0.00000E+00 7.50000E+00
 -1       134 3.25000E+01 0.00000E+00 7.50000E+00
 -1       135 4.75000E+01 0.00000E+00 2.50000E+00
 -1       136 4.25000E+01 0.00000E+00 2.50000E+00
 -1       137 4.00000E+01 0.00000E+00 5.00000E+00
 -1       138 3.75000E+01 0.00000E+00 7.50000E+00
 -1       139 4.25000E+01 0.00000E+00 7.50000E+00
 -1       140 5.75000E+01 0.00000E+00 2.50000E+00
 -1       141 5.25000E+01 0.00000E+00 2.50000E+00
 -1       142 5.00000E+01 0.00000E+00 5.00000E+00
 -1       143 4.75000E+01 0.00000E+00 7.50000E+00
 -1       144 5.25000E+01 0.00000E+00 7.50000E+00
 -1       145 6.75000E+01 0.00000E+00 2.50000E+00
 -1       146 6.25000E+01 0.00000E+00 2.50000E+00
 -1       147 6.00000E+01 0.00000E+00 5.00000E+00
 -1       148 5.75000E+01 0.00000E+00 7.50000E+00
 -1       149 6.25000E+01 0.00000E+00 7.50000E+00
 -1       150 7.75000E+01 0.00000E+00 2.50000E+00
 -1       151 7.25000E+01 0.00000E+00 2.50000E+00
 -1       152 7.00000E+01 0.00000E+00 5.00000E+00
 -1       153 6.75000E+01 0.00000E+00 7.50000E+00
 -1       154 7.25000E+01 0.00000E+00 7.50000E+00
 -1       155 8.75000E+01 0.00000E+00 2.50000E+00
 -1       156 8.25000E+01 0.00000E+00 2.50000E+00
 -1       157 8.00000E+01 0.00000E+00 5.00000E+00
 -1       158 7.75000E+01 0.00000E+00 7.50000E+00
 -1       159 8.25000E+01 0.00000E+00 7.50000E+00
 -1       160 9.00000E+01 0.00000E+00 5.00000E+00
 -1       161 8.75000E+01 0.00000E+00 7.50000E+00
 -1       162 2.50000E+01 1.00000E+01 5.00000E+00
 -1       163 3.50000E+01 1.00000E+01 5.00000E+00
 -1       164 4.50000E+01 1.00000E+01 5.00000E+00
 -1       165 5.50000E+01 1.00000E+01 5.00000E+00
 -1       166 6.50000E+01 1.00000E+01 5.00000E+00
 -1       167 7.50000E+01 1.00000E+01 5.00000E+00
 -1       168 8.50000E+01 1.00000E+01 5.00000E+00
 -1       169 5.00000E+00 1.00000E+01 5.00000E+00
 -1       170 9.50000E+01 1.00000E+01 5.00000E+00
 -1       171 1.50000E+01 1.00000E+01 5.00000E+00
 -1       172 2.50000E+00 1.00000E+01 7.50000E+00
 -1       173 2.50000E+00 1.00000E+01 2.50000E+00
 -1       174 7.50000E+00 1.00000E+01 7.50000E+00
 -1       175 7.50000E+00 1.00000E+01 2.50000E+00
 -1       176 9.75000E+01 1.00000E+01 2.50000E+00
 -1       177 9.75000E+01 1.00000E+01 7.50000E+00
 -1       178 9.25000E+01 1.00000E+01 7.50000E+00
 -1       179 9.25000E+01 1.00000E+01 2.50000E+00
 -1       180 1.25000E+01 1.00000E+01 2.50000E+00
 -1       181 1.75000E+01 1.00000E+01 2.50000E+00
 -1       182 1.00000E+01 1.00000E+01 5.00000E+00
 -1       183 1.25000E+01 1.00000E+01 7.50000E+00
 -1       184 2.25000E+01 1.00000E+01 2.50000E+00
 -1       185 2.75000E+01 1.00000E+01 2.50000E+00
 -1       186 2.25000E+01 1.00000E+01 7.50000E+00
 -1       187 2.00000E+01 1.00000E+01 5.00000E+00
 -1       188 1.75000E+01 1.00000E+01 7.50000E+00
 -1       189 3.25000E+01 1.00000E+01 2.50000E+00
 -1       190 3.75000E+01 1.00000E+01 2.50000E+00
 -1       191 2.75000E+01 1.00000E+01 7.50000E+00
 -1       192 3.00000E+01 1.00000E+01 5.00000E+00
 -1       193 3.25000E+01 1.00000E+01 7.50000E+00
 -1       194 4.25000E+01 1.00000E+01 2.50000E+00
 -1       195 4.75000E+01 1.00000E+01 2.50000E+00
 -1       196 3.75000E+01 1.00000E+01 7.50000E+00
 -1       197 4.00000E+01 1.00000E+01 5.00000E+00
 -1       198 4.25000E+01 1.00000E+01 7.50000E+00
 -1       199 5.25000E+01 1.00000E+01 2.50000E+00
 -1       200 5.75000E+01 1.00000E+01 2.50000E+00
 -1       201 4.75000E+01 1.00000E+01 7.50000E+00
 -1       202 5.00000E+01 1.00000E+01 5.00000E+00
 -1       203 5.25000E+01 1.00000E+01 7.50000E+00
 -1       204 6.25000E+01 1.00000E+01 2.50000E+00
 -1       205 6.75000E+01 1.00000E+01 2.50000E+00
 -1       206 5.75000E+01 1.00000E+01 7.50000E+00
 -1       207 6.00000E+01 1.00000E+01 5.00000E+00
 -1       208 6.25000E+01 1.00000E+01 7.50000E+00
 -1       209 7.25000E+01 1.00000E+01 2.50000E+00
 -1       210 7.75000E+01 1.00000E+01 2.50000E+00
 -1       211 6.75000E+01 1.00000E+01 7.50000E+00
 -1       212 7.00000E+01 1.00000E+01 5.00000E+00
 -1       213 7.25000E+01 1.00000E+01 7.50000E+00
 -1       214 8.25000E+01 1.00000E+01 2.50000E+00
 -1       215 8.75000E+01 1.00000E+01 2.50000E+00
 -1       216 7.75000E+01 1.00000E+01 7.50000E+00
 -1       217 8.00000E+01 1.00000E+01 5.00000E+00
 -1       218 8.25000E+01 1.00000E+01 7.50000E+00
 -1       219 8.75000E+01 1.00000E+01 7.50000E+00
 -1       220 9.00000E+01 1.00000E+01 5.00000E+00
 -1       221 9.50000E+01 5.00000E+00 0.00000E+00
 -1       222 1.50000E+01 5.00000E+00 0.00000E+00
 -1       223 2.50000E+01 5.00000E+00 0.00000E+00
 -1       224 3.50000E+01 5.00000E+00 0.00000E+00
 -1       225 4.50000E+01 5.00000E+00 0.00000E+00
 -1       226 5.50000E+01 5.00000E+00 0.00000E+00
 -1       227 5.00000E+00 5.00000E+00 0.00000E+00
 -1       228 6.50000E+01 5.00000E+00 0.00000E+00
 -1       229 7.50000E+01 5.00000E+00 0.00000E+00
 -1       230 8.50000E+01 5.00000E+00 0.00000E+00
 -1       231 2.50000E+00 7.50000E+00 0.00000E+00
 -1       232 2.50000E+00 2.50000E+00 0.00000E+00
 -1       233 7.50000E+00 2.50000E+00 0.00000E+00
 -1       234 7.50000E+00 7.50000E+00 0.00000E+00
 -1       235 9.75000E+01 2.50000E+00 0.00000E+00
 -1       236 9.75000E+01 7.50000E+00 0.00000E+00
 -1       237 9.25000E+01 2.50000E+00 0.00000E+00
 -1       238 9.25000E+01 7.50000E+00 0.00000E+00
 -1       239 1.25000E+01 2.50000E+00 0.00000E+00
 -1       240 1.75000E+01 2.50000E+00 0.00000E+00
 -1       241 1.00000E+01 5.00000E+00 0.00000E+00
 -1       242 1.25000E+01 7.50000E+00 0.00000E+00
 -1       243 2.25000E+01 2.50000E+00 0.00000E+00
 -1       244 2.75000E+01 2.50000E+00 0.00000E+00
 -1       245 2.00000E+01 5.00000E+00 0.00000E+00
 -1       246 1.75000E+01 7.50000E+00 0.00000E+00
 -1       247 2.25000E+01 7.50000E+00 0.00000E+00
 -1       248 3.25000E+01 2.50000E+00 0.00000E+00
 -1       249 3.75000E+01 2.50000E+00 0.00000E+00
 -1       250 3.00000E+01 5.00000E+00 0.00000E+00
 -1       251 2.75000E+01 7.50000E+00 0.00000E+00
 -1       252 3.25000E+01 7.50000E+00 0.00000E+00
 -1       253 4.25000E+01 2.50000E+00 0.00000E+00
 -1       254 4.75000E+01 2.50000E+00 0.00000E+00
 -1       255 4.00000E+01 5.00000E+00 0.00000E+00
 -1       256 3.75000E+01 7.50000E+00 0.00000E+00
 -1       257 4.25000E+01 7.50000E+00 0.00000E+00
 -1       258 5.25000E+01 2.50000E+00 0.00000E+00
 -1       259 5.75000E+01 2.50000E+00 0.00000E+00
 -1       260 5.00000E+01 5.00000E+00 0.00000E+00
 -1       261 4.75000E+01 7.50000E+00 0.00000E+00
 -1       262 5.25000E+01 7.50000E+00 0.00000E+00
 -1       263 6.25000E+01 2.50000E+00 0.00000E+00
 -1       264 6.75000E+01 2.50000E+00 0.00000E+00
 -1       265 6.00000E+01 5.00000E+00 0.00000E+00
 -1       266 5.75000E+01 7.50000E+00 0.00000E+00
 -1       267 6.25000E+01 7.50000E+00 0.00000E+00
 -1       268 7.25000E+01 2.50000E+00 0.00000E+00
 -1       269 7.75000E+01 2.50000E+00 0.00000E+00
 -1       270 7.00000E+01 5.00000E+00 0.00000E+00
 -1       271 6.75000E+01 7.50000E+00 0.00000E+00
 -1       272 7.25000E+01 7.50000E+00 0.00000E+00
 -1       273 8.25000E+01 2.50000E+00 0.00000E+00
 -1       274 8.75000E+01 2.50000E+00 0.00000E+00
 -1       275 8.00000E+01 5.00000E+00 0.00000E+00
 -1       276 7.75000E+01 7.50000E+00 0.00000E+00
 -1       277 8.25000E+01 7.50000E+00 0.00000E+00
 -1       278 9.00000E+01 5.00000E+00 0.00000E+00
 -1       279 8.75000E+01 7.50000E+00 0.00000E+00
 -1       280 5.00000E+00 5.00000E+00 1.00000E+01
 -1       281 2.50000E+01 5.00000E+00 1.00000E+01
 -1       282 3.50000E+01 5.00000E+00 1.00000E+01
 -1       283 4.50000E+01 5.00000E+00 1.00000E+01
 -1       284 5.50000E+01 5.00000E+00 1.00000E+01
 -1       285 6.50000E+01 5.00000E+00 1.00000E+01
 -1       286 7.50000E+01 5.00000E+00 1.00000E+01
 -1       287 8.50000E+01 5.00000E+00 1.00000E+01
 -1       288 9.50000E+01 5.00000E+00 1.00000E+01
 -1       289 1.50000E+01 5.00000E+00 1.00000E+01
 -1       290 2.50000E+00 2.50000E+00 1.00000E+01
 -1       291 2.50000E+00 7.50000E+00 1.00000E+01
 -1       292 7.50000E+00 2.50000E+00 1.00000E+01
 -1       293 7.50000E+00 7.50000E+00 1.00000E+01
 -1       294 9.75000E+01 7.50000E+00 1.00000E+01
 -1       295 9.75000E+01 2.50000E+00 1.00000E+01
 -1       296 9.25000E+01 2.50000E+00 1.00000E+01
 -1       297 9.25000E+01 7.50000E+00 1.00000E+01
 -1       298 1.75000E+01 2.50000E+00 1.00000E+01
 -1       299 1.25000E+01 2.50000E+00 1.00000E+01
 -1       300 1.00000E+01 5.00000E+00 1.00000E+01
 -1       301 1.25000E+01 7.50000E+00 1.00000E+01
 -1       302 2.75000E+01 2.50000E+00 1.00000E+01
 -1       303 2.25000E+01 2.50000E+00 1.00000E+01
 -1       304 2.25000E+01 7.50000E+00 1.00000E+01
 -1       305 2.00000E+01 5.00000E+00 1.00000E+01
 -1       306 1.75000E+01 7.50000E+00 1.00000E+01
 -1       307 3.75000E+01 2.50000E+00 1.00000E+01
 -1       308 3.25000E+01 2.50000E+00 1.00000E+01
 -1       309 2.75000E+01 7.50000E+00 1.00000E+01
 -1       310 3.00000E+01 5.00000E+00 1.00000E+01
 -1       311 3.25000E+01 7.50000E+00 1.00000E+01
 -1       312 4.75000E+01 2.50000E+00 1.00000E+01
 -1       313 4.25000E+01 2.50000E+00 1.00000E+01
 -1       314 3.75000E+01 7.50000E+00 1.00000E+01
 -1       315 4.00000E+01 5.00000E+00 1.00000E+01
 -1       316 4.25000E+01 7.50000E+00 1.00000E+01
 -1       317 5.75000E+01 2.50000E+00 1.00000E+01
 -1       318 5.25000E+01 2.50000E+00 1.00000E+01
 -1       319 4.75000E+01 7.50000E+00 1.00000E+01
 -1       320 5.00000E+01 5.00000E+00 1.00000E+01
 -1       321 5.25000E+01 7.50000E+00 1.00000E+01
 -1       322 6.75000E+01 2.50000E+00 1.00000E+01
 -1       323 6.25000E+01 2.50000E+00 1.00000E+01
 -1       324 5.75000E+01 7.50000E+00 1.00000E+01
 -1       325 6.00000E+01 5.00000E+00 1.00000E+01
 -1       326 6.25000E+01 7.50000E+00 1.00000E+01
 -1       327 7.75000E+01 2.50000E+00 1.00000E+01
 -1       328 7.25000E+01 2.50000E+00 1.00000E+01
 -1       329 6.75000E+01 7.50000E+00 1.00000E+01
 -1       330 7.00000E+01 5.00000E+00 1.00000E+01
 -1       331 7.25000E+01 7.50000E+00 1.00000E+01
 -1       332 8.75000E+01 2.50000E+00 1.00000E+01
 -1       333 8.25000E+01 2.50000E+00 1.00000E+01
 -1       334 7.75000E+01 7.50000E+00 1.00000E+01
 -1       335 8.00000E+01 5.00000E+00 1.00000E+01
 -1       336 8.25000E+01 7.50000E+00 1.00000E+01
 -1       337 8.75000E+01 7.50000E+00 1.00000E+01
 -1       338 9.00000E+01 5.00000E+00 1.00000E+01
 -1       339 1.00000E+01 5.00000E+00 5.00000E+00
 -1       340 9.00000E+01 5.00000E+00 5.00000E+00
 -1       341 2.25000E+01 5.00000E+00 2.50000E+00
 -1       342 2.50000E+01 5.00000E+00 5.00000E+00
 -1       343 2.00000E+01 7.50000E+00 7.50000E+00
 -1       344 2.00000E+01 2.50000E+00 7.50000E+00
 -1       345 1.75000E+01 2.50000E+00 5.00000E+00
 -1       346 4.50000E+01 7.50000E+00 2.50000E+00
 -1       347 4.50000E+01 7.50000E+00 7.50000E+00
 -1       348 4.50000E+01 5.00000E+00 5.00000E+00
 -1       349 4.75000E+01 7.50000E+00 5.00000E+00
 -1       350 3.75000E+01 5.00000E+00 7.50000E+00
 -1       351 3.75000E+01 2.50000E+00 5.00000E+00
 -1       352 3.50000E+01 7.50000E+00 2.50000E+00
 -1       353 4.00000E+01 5.00000E+00 5.00000E+00
 -1       354 4.00000E+01 2.50000E+00 2.50000E+00
 -1       355 1.50000E+01 2.50000E+00 2.50000E+00
 -1       356 1.50000E+01 2.50000E+00 7.50000E+00
 -1       357 1.50000E+01 5.00000E+00 5.00000E+00
 -1       358 2.50000E+01 2.50000E+00 2.50000E+00
 -1       359 2.50000E+01 7.50000E+00 2.50000E+00
 -1       360 2.25000E+01 5.00000E+00 7.50000E+00
 -1       361 2.50000E+01 2.50000E+00 7.50000E+00
 -1       362 2.50000E+01 7.50000E+00 7.50000E+00
 -1       363 4.25000E+01 7.50000E+00 5.00000E+00
 -1       364 4.50000E+01 2.50000E+00 2.50000E+00
 -1       365 4.25000E+01 5.00000E+00 2.50000E+00
 -1       366 4.50000E+01 2.50000E+00 7.50000E+00
 -1       367 2.75000E+01 5.00000E+00 7.50000E+00
 -1       368 2.75000E+01 2.50000E+00 5.00000E+00
 -1       369 3.50000E+01 5.00000E+00 5.00000E+00
 -1       370 3.25000E+01 2.50000E+00 5.00000E+00
 -1       371 3.50000E+01 7.50000E+00 7.50000E+00
 -1       372 3.25000E+01 5.00000E+00 7.50000E+00
 -1       373 6.50000E+01 2.50000E+00 7.50000E+00
 -1       374 6.25000E+01 5.00000E+00 7.50000E+00
 -1       375 6.50000E+01 7.50000E+00 7.50000E+00
 -1       376 6.50000E+01 5.00000E+00 5.00000E+00
 -1       377 4.00000E+01 7.50000E+00 7.50000E+00
 -1       378 1.50000E+01 7.50000E+00 2.50000E+00
 -1       379 1.50000E+01 7.50000E+00 7.50000E+00
 -1       380 1.75000E+01 7.50000E+00 5.00000E+00
 -1       381 3.50000E+01 2.50000E+00 2.50000E+00
 -1       382 3.50000E+01 2.50000E+00 7.50000E+00
 -1       383 5.50000E+01 7.50000E+00 7.50000E+00
 -1       384 5.50000E+01 5.00000E+00 5.00000E+00
 -1       385 5.50000E+01 7.50000E+00 2.50000E+00
 -1       386 5.25000E+01 7.50000E+00 5.00000E+00
 -1       387 7.50000E+01 5.00000E+00 5.00000E+00
 -1       388 7.75000E+01 5.00000E+00 2.50000E+00
 -1       389 7.50000E+01 7.50000E+00 7.50000E+00
 -1       390 7.75000E+01 7.50000E+00 5.00000E+00
 -1       391 7.50000E+01 2.50000E+00 7.50000E+00
 -1       392 7.25000E+01 5.00000E+00 7.50000E+00
 -1       393 6.00000E+01 2.50000E+00 2.50000E+00
 -1       394 6.00000E+01 7.50000E+00 2.50000E+00
 -1       395 6.25000E+01 5.00000E+00 2.50000E+00
 -1       396 7.00000E+01 2.50000E+00 7.50000E+00
 -1       397 7.00000E+01 7.50000E+00 7.50000E+00
 -1       398 8.50000E+01 5.00000E+00 5.00000E+00
 -1       399 8.25000E+01 7.50000E+00 5.00000E+00
 -1       400 8.50000E+01 2.50000E+00 2.50000E+00
 -1       401 8.25000E+01 5.00000E+00 2.50000E+00
 -1       402 8.50000E+01 2.50000E+00 7.50000E+00
 -1       403 7.50000E+01 2.50000E+00 2.50000E+00
 -1       404 7.50000E+01 7.50000E+00 2.50000E+00
 -1       405 6.75000E+01 7.50000E+00 5.00000E+00
 -1       406 7.25000E+01 5.00000E+00 2.50000E+00
 -1       407 4.75000E+01 2.50000E+00 5.00000E+00
 -1       408 5.75000E+01 7.50000E+00 5.00000E+00
 -1       409 6.50000E+01 7.50000E+00 2.50000E+00
 -1       410 6.50000E+01 2.50000E+00 2.50000E+00
 -1       411 6.75000E+01 5.00000E+00 2.50000E+00
 -1       412 5.50000E+01 2.50000E+00 7.50000E+00
 -1       413 5.25000E+01 5.00000E+00 7.50000E+00
 -1       414 5.50000E+01 2.50000E+00 2.50000E+00
 -1       415 5.75000E+01 2.50000E+00 5.00000E+00
 -1       416 8.50000E+01 7.50000E+00 7.50000E+00
 -1       417 8.50000E+01 7.50000E+00 2.50000E+00
 -1       418 2.75000E+01 7.50000E+00 5.00000E+00
 -1       419 7.75000E+01 5.00000E+00 7.50000E+00
 -1       420 8.00000E+01 2.50000E+00 7.50000E+00
 -1       421 3.00000E+01 5.00000E+00 5.00000E+00
 -1       422 5.00000E+01 2.50000E+00 7.50000E+00
 -1       423 5.00000E+01 5.00000E+00 5.00000E+00
 -1       424 8.25000E+01 2.50000E+00 5.00000E+00
 -1       425 6.75000E+01 2.50000E+00 5.00000E+00
 -1       426 9.75000E+01 5.00000E+00 2.50000E+00
 -1       427 9.75000E+01 7.50000E+00 5.00000E+00
 -1       428 9.50000E+01 7.50000E+00 2.50000E+00
 -1       429 9.50000E+01 2.50000E+00 2.50000E+00
 -1       430 9.50000E+01 5.00000E+00 5.00000E+00
 -1       431 9.75000E+01 2.50000E+00 5.00000E+00
 -1       432 2.50000E+00 5.00000E+00 7.50000E+00
 -1       433 2.50000E+00 7.50000E+00 5.00000E+00
 -1       434 5.00000E+00 7.50000E+00 7.50000E+00
 -1       435 5.00000E+00 2.50000E+00 7.50000E+00
 -1       436 5.00000E+00 5.00000E+00 5.00000E+00
 -1       437 2.50000E+00 2.50000E+00 5.00000E+00
 -1       438 5.00000E+00 7.50000E+00 2.50000E+00
 -1       439 2.50000E+00 5.00000E+00 2.50000E+00
 -1       440 5.00000E+00 2.50000E+00 2.50000E+00
 -1       441 9.50000E+01 7.50000E+00 7.50000E+00
 -1       442 9.75000E+01 5.00000E+00 7.50000E+00
 -1       443 9.50000E+01 2.50000E+00 7.50000E+00
 -1       444 1.25000E+01 7.50000E+00 5.00000E+00
 -1       445 1.25000E+01 5.00000E+00 7.50000E+00
 -1       446 1.25000E+01 5.00000E+00 2.50000E+00
 -1       447 1.25000E+01 2.50000E+00 5.00000E+00
 -1       448 7.50000E+00 7.50000E+00 5.00000E+00
 -1       449 7.50000E+00 2.50000E+00 5.00000E+00
 -1       450 7.50000E+00 5.00000E+00 7.50000E+00
 -1       451 7.50000E+00 5.00000E+00 2.50000E+00
 -1       452 8.75000E+01 5.00000E+00 2.50000E+00
 -1       453 8.75000E+01 5.00000E+00 7.50000E+00
 -1       454 8.75000E+01 7.50000E+00 5.00000E+00
 -1       455 8.75000E+01 2.50000E+00 5.00000E+00
 -1       456 9.25000E+01 7.50000E+00 5.00000E+00
 -1       457 9.25000E+01 2.50000E+00 5.00000E+00
 -1       458 9.25000E+01 5.00000E+00 2.50000E+00
 -1       459 9.25000E+01 5.00000E+00 7.50000E+00
 -1       460 1.00000E+01 7.50000E+00 7.50000E+00
 -1       461 1.00000E+01 2.50000E+00 7.50000E+00
 -1       462 1.00000E+01 7.50000E+00 2.50000E+00
 -1       463 1.00000E+01 2.50000E+00 2.50000E+00
 -1       464 9.00000E+01 7.50000E+00 2.50000E+00
 -1       465 9.00000E+01 2.50000E+00 2.50000E+00
 -1       466 9.00000E+01 2.50000E+00 7.50000E+00
 -1       467 9.00000E+01 7.50000E+00 7.50000E+00
 -3
    3C                           208                                     1
 -1       225    6    0    1
 -2       162        18       104       289       341       126       342       343       345       344
 -1       226    6    0    1
 -2       225       164       283        59       346       347       348       261       195       349
 -1       227    6    0    1
 -2       163        39       224       106       350       351       352       353       139       354
 -1       228    6    0    1
 -2       103        18       222       289       121       240       355       356       345       357
 -1       229    6    0    1
 -2       223        18       104       162       243       126       358       359       341       342
 -1       230    6    0    1
 -2       104       162        75       281       342       186       360       361       362       304
 -1       231    6    0    1
 -2       225       283        58       106       348       363       257       364       366       365
 -1       232    6    0    1
 -2        75       162       104       289       186       342       360       306       343       344
 -1       233    6    0    1
 -2       163        58       106       224       190       365       353       352       256       354
 -1       234    6    0    1
 -2       162       104        38       281       342       133       367       362       361       302
 -1       235    6    0    1
 -2       104       162        38       223       342       367       133       358       359       368
 -1       236    6    0    1
 -2       282       224        38       163       369       370       308       371       352       372
 -1       237    6    0    1
 -2       285       108        79       166       373       374       326       375       376       208
 -1       238    6    0    1
 -2       163       283       106        58       377       366       353       190       363       365
 -1       239    6    0    1
 -2       222        56       171       289       246       181       378       357       380       379
 -1       240    6    0    1
 -2       283       225        58       164       348       257       363       347       346       194
 -1       241    6    0    1
 -2       163        39       282       224       350       307       371       352       351       369
 -1       242    6    0    1
 -2       283        39       163       106       313       350       377       366       139       353
 -1       243    6    0    1
 -2       224       282        38       105       369       308       370       381       382       134
 -1       244    6    0    1
 -2       224        39       282       105       351       307       369       381       138       382
 -1       245    6    0    1
 -2       284        78       165       226       321       203       383       384       386       385
 -1       246    6    0    1
 -2       167       109        62       286       387       388       210       389       391       390
 -1       247    6    0    1
 -2        42       167       286       109       392       389       328       154       387       391
 -1       248    6    0    1
 -2       166       108       226        22       376       393       394       395       146       259
 -1       249    6    0    1
 -2        42       167       109       285       392       387       154       322       397       396
 -1       250    6    0    1
 -2       230       287        62       110       398       399       277       400       402       401
 -1       251    6    0    1
 -2       109       167        62       229       387       210       388       403       404       276
 -1       252    6    0    1
 -2       167       109       285        61       387       396       397       209       406       405
 -1       253    6    0    1
 -2       225       283       106        21       348       366       364       254       407       135
 -1       254    6    0    1
 -2       165        79       284       226       206       324       383       385       408       384
 -1       255    6    0    1
 -2       108        79       166       226       374       208       376       393       408       394
 -1       256    6    0    1
 -2       108       166       228        22       376       409       410       146       395       263
 -1       257    6    0    1
 -2       166       108        61       285       376       411       205       375       373       405
 -1       258    6    0    1
 -2        78       284       107       226       321       412       413       386       384       414
 -1       259    6    0    1
 -2        41       107       284       226       148       412       317       415       414       384
 -1       260    6    0    1
 -2        61       167       109       229       209       387       406       272       404       403
 -1       261    6    0    1
 -2       287       230        62       168       398       277       399       416       417       214
 -1       262    6    0    1
 -2       108       166        61       228       376       205       411       410       409       271
 -1       263    6    0    1
 -2       162        38       223        76       367       368       359       191       310       418
 -1       264    6    0    1
 -2        37        18       289       104       127       345       298       129       126       344
 -1       265    6    0    1
 -2       108        41       285        79       149       323       373       374       325       326
 -1       266    6    0    1
 -2        75        56       162       289       187       184       186       306       380       343
 -1       267    6    0    1
 -2        81        43       109       287       335       158       419       336       333       420
 -1       268    6    0    1