    1C
    1UUSER                                                              
    1UDATE              21.december.2022                                
    1UTIME              11:30:51                                        
    1UHOST                                                              
    1UPGM               CalculiX                                        
    1UVERSION           Version 2.19                             
    1UCOMPILETIME       Sat Dec 18 23:10:56     2021                    
    1UDIR                                                               
    1UDBN                                                               
    1UMAT    1STEEL                                                     
    2C                          4403                                     1
 -1         1 0.00000E+00 0.00000E+00 1.00000E+01
 -1         2 0.00000E+00 0.00000E+00 0.00000E+00
 -1         3 0.00000E+00 1.00000E+01 1.00000E+01
 -1         4 0.00000E+00 1.00000E+01 0.00000E+00
 -1         5 1.00000E+02 0.00000E+00 1.00000E+01
 -1         6 1.00000E+02 0.00000E+00 0.00000E+00
 -1         7 1.00000E+02 1.00000E+01 1.00000E+01
 -1         8 1.00000E+02 1.00000E+01 0.00000E+00
 -1         9 0.00000E+00 0.00000E+00 2.50000E+00
 -1        10 0.00000E+00 0.00000E+00 5.00000E+00
 -1        11 0.00000E+00 0.00000E+00 7.50000E+00
 -1        12 0.00000E+00 0.00000E+00 1.25000E+00
 -1        13 0.00000E+00 0.00000E+00 3.75000E+00
 -1        14 0.00000E+00 0.00000E+00 6.25000E+00
 -1        15 0.00000E+00 0.00000E+00 8.75000E+00
 -1        16 0.00000E+00 2.50000E+00 1.00000E+01
 -1        17 0.00000E+00 5.00000E+00 1.00000E+01
 -1        18 0.00000E+00 7.50000E+00 1.00000E+01
 -1        19 0.00000E+00 1.25000E+00 1.00000E+01
 -1        20 0.00000E+00 3.75000E+00 1.00000E+01
 -1        21 0.00000E+00 6.25000E+00 1.00000E+01
 -1        22 0.00000E+00 8.75000E+00 1.00000E+01
 -1        23 0.00000E+00 1.00000E+01 2.50000E+00
 -1        24 0.00000E+00 1.00000E+01 5.00000E+00
 -1        25 0.00000E+00 1.00000E+01 7.50000E+00
 -1        26 0.00000E+00 1.00000E+01 1.25000E+00
 -1        27 0.00000E+00 1.00000E+01 3.75000E+00
 -1        28 0.00000E+00 1.00000E+01 6.25000E+00
 -1        29 0.00000E+00 1.00000E+01 8.75000E+00
 -1        30 0.00000E+00 2.50000E+00 0.00000E+00
 -1        31 0.00000E+00 5.00000E+00 0.00000E+00
 -1        32 0.00000E+00 7.50000E+00 0.00000E+00
 -1        33 0.00000E+00 1.25000E+00 0.00000E+00
 -1        34 0.00000E+00 3.75000E+00 0.00000E+00
 -1        35 0.00000E+00 6.25000E+00 0.00000E+00
 -1        36 0.00000E+00 8.75000E+00 0.00000E+00
 -1        37 1.00000E+02 0.00000E+00 2.50000E+00
 -1        38 1.00000E+02 0.00000E+00 5.00000E+00
 -1        39 1.00000E+02 0.00000E+00 7.50000E+00
 -1        40 1.00000E+02 0.00000E+00 1.25000E+00
 -1        41 1.00000E+02 0.00000E+00 3.75000E+00
 -1        42 1.00000E+02 0.00000E+00 6.25000E+00
 -1        43 1.00000E+02 0.00000E+00 8.75000E+00
 -1        44 1.00000E+02 2.50000E+00 1.00000E+01
 -1        45 1.00000E+02 5.00000E+00 1.00000E+01
 -1        46 1.00000E+02 7.50000E+00 1.00000E+01
 -1        47 1.00000E+02 1.25000E+00 1.00000E+01
 -1        48 1.00000E+02 3.75000E+00 1.00000E+01
 -1        49 1.00000E+02 6.25000E+00 1.00000E+01
 -1        50 1.00000E+02 8.75000E+00 1.00000E+01
 -1        51 1.00000E+02 1.00000E+01 2.50000E+00
 -1        52 1.00000E+02 1.00000E+01 5.00000E+00
 -1        53 1.00000E+02 1.00000E+01 7.50000E+00
 -1        54 1.00000E+02 1.00000E+01 1.25000E+00
 -1        55 1.00000E+02 1.00000E+01 3.75000E+00
 -1        56 1.00000E+02 1.00000E+01 6.25000E+00
 -1        57 1.00000E+02 1.00000E+01 8.75000E+00
 -1        58 1.00000E+02 2.50000E+00 0.00000E+00
 -1        59 1.00000E+02 5.00000E+00 0.00000E+00
 -1        60 1.00000E+02 7.50000E+00 0.00000E+00
 -1        61 1.00000E+02 1.25000E+00 0.00000E+00
 -1        62 1.00000E+02 3.75000E+00 0.00000E+00
 -1        63 1.00000E+02 6.25000E+00 0.00000E+00
 -1        64 1.00000E+02 8.75000E+00 0.00000E+00
 -1        65 2.94118E+00 0.00000E+00 0.00000E+00
 -1        66 5.88235E+00 0.00000E+00 0.00000E+00
 -1        67 8.82353E+00 0.00000E+00 0.00000E+00
 -1        68 1.17647E+01 0.00000E+00 0.00000E+00
 -1        69 1.47059E+01 0.00000E+00 0.00000E+00
 -1        70 1.76471E+01 0.00000E+00 0.00000E+00
 -1        71 2.05882E+01 0.00000E+00 0.00000E+00
 -1        72 2.35294E+01 0.00000E+00 0.00000E+00
 -1        73 2.64706E+01 0.00000E+00 0.00000E+00
 -1        74 2.94118E+01 0.00000E+00 0.00000E+00
 -1        75 3.23529E+01 0.00000E+00 0.00000E+00
 -1        76 3.52941E+01 0.00000E+00 0.00000E+00
 -1        77 3.82353E+01 0.00000E+00 0.00000E+00
 -1        78 4.11765E+01 0.00000E+00 0.00000E+00
 -1        79 4.41176E+01 0.00000E+00 0.00000E+00
 -1        80 4.70588E+01 0.00000E+00 0.00000E+00
 -1        81 5.00000E+01 0.00000E+00 0.00000E+00
 -1        82 5.29412E+01 0.00000E+00 0.00000E+00
 -1        83 5.58824E+01 0.00000E+00 0.00000E+00
 -1        84 5.88235E+01 0.00000E+00 0.00000E+00
 -1        85 6.17647E+01 0.00000E+00 0.00000E+00
 -1        86 6.47059E+01 0.00000E+00 0.00000E+00
 -1        87 6.76471E+01 0.00000E+00 0.00000E+00
 -1        88 7.05882E+01 0.00000E+00 0.00000E+00
 -1        89 7.35294E+01 0.00000E+00 0.00000E+00
 -1        90 7.64706E+01 0.00000E+00 0.00000E+00
 -1        91 7.94118E+01 0.00000E+00 0.00000E+00
 -1        92 8.23529E+01 0.00000E+00 0.00000E+00
 -1        93 8.52941E+01 0.00000E+00 0.00000E+00
 -1        94 8.82353E+01 0.00000E+00 0.00000E+00
 -1        95 9.11765E+01 0.00000E+00 0.00000E+00
 -1        96 9.41176E+01 0.00000E+00 0.00000E+00
 -1        97 9.70588E+01 0.00000E+00 0.00000E+00
 -1        98 1.47059E+00 0.00000E+00 0.00000E+00
 -1        99 4.41176E+00 0.00000E+00 0.00000E+00
 -1       100 7.35294E+00 0.00000E+00 0.00000E+00
 -1       101 1.02941E+01 0.00000E+00 0.00000E+00
 -1       102 1.32353E+01 0.00000E+00 0.00000E+00
 -1       103 1.61765E+01 0.00000E+00 0.00000E+00
 -1       104 1.91176E+01 0.00000E+00 0.00000E+00
 -1       105 2.20588E+01 0.00000E+00 0.00000E+00
 -1       106 2.50000E+01 0.00000E+00 0.00000E+00
 -1       107 2.79412E+01 0.00000E+00 0.00000E+00
 -1       108 3.08824E+01 0.00000E+00 0.00000E+00
 -1       109 3.38235E+01 0.00000E+00 0.00000E+00
 -1       110 3.67647E+01 0.00000E+00 0.00000E+00
 -1       111 3.97059E+01 0.00000E+00 0.00000E+00
 -1       112 4.26471E+01 0.00000E+00 0.00000E+00
 -1       113 4.55882E+01 0.00000E+00 0.00000E+00
 -1       114 4.85294E+01 0.00000E+00 0.00000E+00
 -1       115 5.14706E+01 0.00000E+00 0.00000E+00
 -1       116 5.44118E+01 0.00000E+00 0.00000E+00
 -1       117 5.73529E+01 0.00000E+00 0.00000E+00
 -1       118 6.02941E+01 0.00000E+00 0.00000E+00
 -1       119 6.32353E+01 0.00000E+00 0.00000E+00
 -1       120 6.61765E+01 0.00000E+00 0.00000E+00
 -1       121 6.91176E+01 0.00000E+00 0.00000E+00
 -1       122 7.20588E+01 0.00000E+00 0.00000E+00
 -1       123 7.50000E+01 0.00000E+00 0.00000E+00
 -1       124 7.79412E+01 0.00000E+00 0.00000E+00
 -1       125 8.08824E+01 0.00000E+00 0.00000E+00
 -1       126 8.38235E+01 0.00000E+00 0.00000E+00
 -1       127 8.67647E+01 0.00000E+00 0.00000E+00
 -1       128 8.97059E+01 0.00000E+00 0.00000E+00
 -1       129 9.26471E+01 0.00000E+00 0.00000E+00
 -1       130 9.55882E+01 0.00000E+00 0.00000E+00
 -1       131 9.85294E+01 0.00000E+00 0.00000E+00
 -1       132 2.94118E+00 0.00000E+00 1.00000E+01
 -1       133 5.88235E+00 0.00000E+00 1.00000E+01
 -1       134 8.82353E+00 0.00000E+00 1.00000E+01
 -1       135 1.17647E+01 0.00000E+00 1.00000E+01
 -1       136 1.47059E+01 0.00000E+00 1.00000E+01
 -1       137 1.76471E+01 0.00000E+00 1.00000E+01
 -1       138 2.05882E+01 0.00000E+00 1.00000E+01
 -1       139 2.35294E+01 0.00000E+00 1.00000E+01
 -1       140 2.64706E+01 0.00000E+00 1.00000E+01
 -1       141 2.94118E+01 0.00000E+00 1.00000E+01
 -1       142 3.23529E+01 0.00000E+00 1.00000E+01
 -1       143 3.52941E+01 0.00000E+00 1.00000E+01
 -1       144 3.82353E+01 0.00000E+00 1.00000E+01
 -1       145 4.11765E+01 0.00000E+00 1.00000E+01
 -1       146 4.41176E+01 0.00000E+00 1.00000E+01
 -1       147 4.70588E+01 0.00000E+00 1.00000E+01
 -1       148 5.00000E+01 0.00000E+00 1.00000E+01
 -1       149 5.29412E+01 0.00000E+00 1.00000E+01
 -1       150 5.58824E+01 0.00000E+00 1.00000E+01
 -1       151 5.88235E+01 0.00000E+00 1.00000E+01
 -1       152 6.17647E+01 0.00000E+00 1.00000E+01
 -1       153 6.47059E+01 0.00000E+00 1.00000E+01
 -1       154 6.76471E+01 0.00000E+00 1.00000E+01
 -1       155 7.05882E+01 0.00000E+00 1.00000E+01
 -1       156 7.35294E+01 0.00000E+00 1.00000E+01
 -1       157 7.64706E+01 0.00000E+00 1.00000E+01
 -1       158 7.94118E+01 0.00000E+00 1.00000E+01
 -1       159 8.23529E+01 0.00000E+00 1.00000E+01
 -1       160 8.52941E+01 0.00000E+00 1.00000E+01
 -1       161 8.82353E+01 0.00000E+00 1.00000E+01
 -1       162 9.11765E+01 0.00000E+00 1.00000E+01
 -1       163 9.41176E+01 0.00000E+00 1.00000E+01
 -1       164 9.70588E+01 0.00000E+00 1.00000E+01
 -1       165 1.47059E+00 0.00000E+00 1.00000E+01
 -1       166 4.41176E+00 0.00000E+00 1.00000E+01
 -1       167 7.35294E+00 0.00000E+00 1.00000E+01
 -1       168 1.02941E+01 0.00000E+00 1.00000E+01
 -1       169 1.32353E+01 0.00000E+00 1.00000E+01
 -1       170 1.61765E+01 0.00000E+00 1.00000E+01
 -1       171 1.91176E+01 0.00000E+00 1.00000E+01
 -1       172 2.20588E+01 0.00000E+00 1.00000E+01
 -1       173 2.50000E+01 0.00000E+00 1.00000E+01
 -1       174 2.79412E+01 0.00000E+00 1.00000E+01
 -1       175 3.08824E+01 0.00000E+00 1.00000E+01
 -1       176 3.38235E+01 0.00000E+00 1.00000E+01
 -1       177 3.67647E+01 0.00000E+00 1.00000E+01
 -1       178 3.97059E+01 0.00000E+00 1.00000E+01
 -1       179 4.26471E+01 0.00000E+00 1.00000E+01
 -1       180 4.55882E+01 0.00000E+00 1.00000E+01
 -1       181 4.85294E+01 0.00000E+00 1.00000E+01
 -1       182 5.14706E+01 0.00000E+00 1.00000E+01
 -1       183 5.44118E+01 0.00000E+00 1.00000E+01
 -1       184 5.73529E+01 0.00000E+00 1.00000E+01
 -1       185 6.02941E+01 0.00000E+00 1.00000E+01
 -1       186 6.32353E+01 0.00000E+00 1.00000E+01
 -1       187 6.61765E+01 0.00000E+00 1.00000E+01
 -1       188 6.91176E+01 0.00000E+00 1.00000E+01
 -1       189 7.20588E+01 0.00000E+00 1.00000E+01
 -1       190 7.50000E+01 0.00000E+00 1.00000E+01
 -1       191 7.79412E+01 0.00000E+00 1.00000E+01
 -1       192 8.08824E+01 0.00000E+00 1.00000E+01
 -1       193 8.38235E+01 0.00000E+00 1.00000E+01
 -1       194 8.67647E+01 0.00000E+00 1.00000E+01
 -1       195 8.97059E+01 0.00000E+00 1.00000E+01
 -1       196 9.26471E+01 0.00000E+00 1.00000E+01
 -1       197 9.55882E+01 0.00000E+00 1.00000E+01
 -1       198 9.85294E+01 0.00000E+00 1.00000E+01
 -1       199 2.94118E+00 1.00000E+01 0.00000E+00
 -1       200 5.88235E+00 1.00000E+01 0.00000E+00
 -1       201 8.82353E+00 1.00000E+01 0.00000E+00
 -1       202 1.17647E+01 1.00000E+01 0.00000E+00
 -1       203 1.47059E+01 1.00000E+01 0.00000E+00
 -1       204 1.76471E+01 1.00000E+01 0.00000E+00
 -1       205 2.05882E+01 1.00000E+01 0.00000E+00
 -1       206 2.35294E+01 1.00000E+01 0.00000E+00
 -1       207 2.64706E+01 1.00000E+01 0.00000E+00
 -1       208 2.94118E+01 1.00000E+01 0.00000E+00
 -1       209 3.23529E+01 1.00000E+01 0.00000E+00
 -1       210 3.52941E+01 1.00000E+01 0.00000E+00
 -1       211 3.82353E+01 1.00000E+01 0.00000E+00
 -1       212 4.11765E+01 1.00000E+01 0.00000E+00
 -1       213 4.41176E+01 1.00000E+01 0.00000E+00
 -1       214 4.70588E+01 1.00000E+01 0.00000E+00
 -1       215 5.00000E+01 1.00000E+01 0.00000E+00
 -1       216 5.29412E+01 1.00000E+01 0.00000E+00
 -1       217 5.58824E+01 1.00000E+01 0.00000E+00
 -1       218 5.88235E+01 1.00000E+01 0.00000E+00
 -1       219 6.17647E+01 1.00000E+01 0.00000E+00
 -1       220 6.47059E+01 1.00000E+01 0.00000E+00
 -1       221 6.76471E+01 1.00000E+01 0.00000E+00
 -1       222 7.05882E+01 1.00000E+01 0.00000E+00
 -1       223 7.35294E+01 1.00000E+01 0.00000E+00
 -1       224 7.64706E+01 1.00000E+01 0.00000E+00
 -1       225 7.94118E+01 1.00000E+01 0.00000E+00
 -1       226 8.23529E+01 1.00000E+01 0.00000E+00
 -1       227 8.52941E+01 1.00000E+01 0.00000E+00
 -1       228 8.82353E+01 1.00000E+01 0.00000E+00
 -1       229 9.11765E+01 1.00000E+01 0.00000E+00
 -1       230 9.41176E+01 1.00000E+01 0.00000E+00
 -1       231 9.70588E+01 1.00000E+01 0.00000E+00
 -1       232 1.47059E+00 1.00000E+01 0.00000E+00
 -1       233 4.41176E+00 1.00000E+01 0.00000E+00
 -1       234 7.35294E+00 1.00000E+01 0.00000E+00
 -1       235 1.02941E+01 1.00000E+01 0.00000E+00
 -1       236 1.32353E+01 1.00000E+01 0.00000E+00
 -1       237 1.61765E+01 1.00000E+01 0.00000E+00
 -1       238 1.91176E+01 1.00000E+01 0.00000E+00
 -1       239 2.20588E+01 1.00000E+01 0.00000E+00
 -1       240 2.50000E+01 1.00000E+01 0.00000E+00
 -1       241 2.79412E+01 1.00000E+01 0.00000E+00
 -1       242 3.08824E+01 1.00000E+01 0.00000E+00
 -1       243 3.38235E+01 1.00000E+01 0.00000E+00
 -1       244 3.67647E+01 1.00000E+01 0.00000E+00
 -1       245 3.97059E+01 1.00000E+01 0.00000E+00
 -1       246 4.26471E+01 1.00000E+01 0.00000E+00
 -1       247 4.55882E+01 1.00000E+01 0.00000E+00
 -1       248 4.85294E+01 1.00000E+01 0.00000E+00
 -1       249 5.14706E+01 1.00000E+01 0.00000E+00
 -1       250 5.44118E+01 1.00000E+01 0.00000E+00
 -1       251 5.73529E+01 1.00000E+01 0.00000E+00
 -1       252 6.02941E+01 1.00000E+01 0.00000E+00
 -1       253 6.32353E+01 1.00000E+01 0.00000E+00
 -1       254 6.61765E+01 1.00000E+01 0.00000E+00
 -1       255 6.91176E+01 1.00000E+01 0.00000E+00
 -1       256 7.20588E+01 1.00000E+01 0.00000E+00
 -1       257 7.50000E+01 1.00000E+01 0.00000E+00
 -1       258 7.79412E+01 1.00000E+01 0.00000E+00
 -1       259 8.08824E+01 1.00000E+01 0.00000E+00
 -1       260 8.38235E+01 1.00000E+01 0.00000E+00
 -1       261 8.67647E+01 1.00000E+01 0.00000E+00
 -1       262 8.97059E+01 1.00000E+01 0.00000E+00
 -1       263 9.26471E+01 1.00000E+01 0.00000E+00
 -1       264 9.55882E+01 1.00000E+01 0.00000E+00
 -1       265 9.85294E+01 1.00000E+01 0.00000E+00
 -1       266 2.94118E+00 1.00000E+01 1.00000E+01
 -1       267 5.88235E+00 1.00000E+01 1.00000E+01
 -1       268 8.82353E+00 1.00000E+01 1.00000E+01
 -1       269 1.17647E+01 1.00000E+01 1.00000E+01
 -1       270 1.47059E+01 1.00000E+01 1.00000E+01
 -1       271 1.76471E+01 1.00000E+01 1.00000E+01
 -1       272 2.05882E+01 1.00000E+01 1.00000E+01
 -1       273 2.35294E+01 1.00000E+01 1.00000E+01
 -1       274 2.64706E+01 1.00000E+01 1.00000E+01
 -1       275 2.94118E+01 1.00000E+01 1.00000E+01
 -1       276 3.23529E+01 1.00000E+01 1.00000E+01
 -1       277 3.52941E+01 1.00000E+01 1.00000E+01
 -1       278 3.82353E+01 1.00000E+01 1.00000E+01
 -1       279 4.11765E+01 1.00000E+01 1.00000E+01
 -1       280 4.41176E+01 1.00000E+01 1.00000E+01
 -1       281 4.70588E+01 1.00000E+01 1.00000E+01
 -1       282 5.00000E+01 1.00000E+01 1.00000E+01
 -1       283 5.29412E+01 1.00000E+01 1.00000E+01
 -1       284 5.58824E+01 1.00000E+01 1.00000E+01
 -1       285 5.88235E+01 1.00000E+01 1.00000E+01
 -1       286 6.17647E+01 1.00000E+01 1.00000E+01
 -1       287 6.47059E+01 1.00000E+01 1.00000E+01
 -1       288 6.76471E+01 1.00000E+01 1.00000E+01
 -1       289 7.05882E+01 1.00000E+01 1.00000E+01
 -1       290 7.35294E+01 1.00000E+01 1.00000E+01
 -1       291 7.64706E+01 1.00000E+01 1.00000E+01
 -1       292 7.94118E+01 1.00000E+01 1.00000E+01
 -1       293 8.23529E+01 1.00000E+01 1.00000E+01
 -1       294 8.52941E+01 1.00000E+01 1.00000E+01
 -1       295 8.82353E+01 1.00000E+01 1.00000E+01
 -1       296 9.11765E+01 1.00000E+01 1.00000E+01
 -1       297 9.41176E+01 1.00000E+01 1.00000E+01
 -1       298 9.70588E+01 1.00000E+01 1.00000E+01
 -1       299 1.47059E+00 1.00000E+01 1.00000E+01
 -1       300 4.41176E+00 1.00000E+01 1.00000E+01
 -1       301 7.35294E+00 1.00000E+01 1.00000E+01
 -1       302 1.02941E+01 1.00000E+01 1.00000E+01
 -1       303 1.32353E+01 1.00000E+01 1.00000E+01
 -1       304 1.61765E+01 1.00000E+01 1.00000E+01
 -1       305 1.91176E+01 1.00000E+01 1.00000E+01
 -1       306 2.20588E+01 1.00000E+01 1.00000E+01
 -1       307 2.50000E+01 1.00000E+01 1.00000E+01
 -1       308 2.79412E+01 1.00000E+01 1.00000E+01
 -1       309 3.08824E+01 1.00000E+01 1.00000E+01
 -1       310 3.38235E+01 1.00000E+01 1.00000E+01
 -1       311 3.67647E+01 1.00000E+01 1.00000E+01
 -1       312 3.97059E+01 1.00000E+01 1.00000E+01
 -1       313 4.26471E+01 1.00000E+01 1.00000E+01
 -1       314 4.55882E+01 1.00000E+01 1.00000E+01
 -1       315 4.85294E+01 1.00000E+01 1.00000E+01
 -1       316 5.14706E+01 1.00000E+01 1.00000E+01
 -1       317 5.44118E+01 1.00000E+01 1.00000E+01
 -1       318 5.73529E+01 1.00000E+01 1.00000E+01
 -1       319 6.02941E+01 1.00000E+01 1.00000E+01
 -1       320 6.32353E+01 1.00000E+01 1.00000E+01
 -1       321 6.61765E+01 1.00000E+01 1.00000E+01
 -1       322 6.91176E+01 1.00000E+01 1.00000E+01
 -1       323 7.20588E+01 1.00000E+01 1.00000E+01
 -1       324 7.50000E+01 1.00000E+01 1.00000E+01
 -1       325 7.79412E+01 1.00000E+01 1.00000E+01
 -1       326 8.08824E+01 1.00000E+01 1.00000E+01
 -1       327 8.38235E+01 1.00000E+01 1.00000E+01
 -1       328 8.67647E+01 1.00000E+01 1.00000E+01
 -1       329 8.97059E+01 1.00000E+01 1.00000E+01
 -1       330 9.26471E+01 1.00000E+01 1.00000E+01
 -1       331 9.55882E+01 1.00000E+01 1.00000E+01
 -1       332 9.85294E+01 1.00000E+01 1.00000E+01
 -1       333 0.00000E+00 7.74295E+00 6.17092E+00
 -1       334 0.00000E+00 2.10924E+00 6.15331E+00
 -1       335 0.00000E+00 6.40810E+00 1.97677E+00
 -1       336 0.00000E+00 2.11354E+00 3.75472E+00
 -1       337 0.00000E+00 4.04759E+00 4.96932E+00
 -1       338 0.00000E+00 3.94237E+00 7.69540E+00
 -1       339 0.00000E+00 8.05355E+00 3.59023E+00
 -1       340 0.00000E+00 3.93029E+00 2.23528E+00
 -1       341 0.00000E+00 6.31206E+00 8.18495E+00
 -1       342 0.00000E+00 5.68066E+00 6.22631E+00
 -1       343 0.00000E+00 1.83013E+00 8.16987E+00
 -1       344 0.00000E+00 8.16987E+00 1.83013E+00
 -1       345 0.00000E+00 1.83013E+00 1.83013E+00
 -1       346 0.00000E+00 8.18492E+00 8.18492E+00
 -1       347 0.00000E+00 6.00040E+00 4.06359E+00
 -1       348 0.00000E+00 9.15064E-01 9.08494E+00
 -1       349 0.00000E+00 9.15064E-01 7.83494E+00
 -1       350 0.00000E+00 2.16506E+00 9.08494E+00
 -1       351 0.00000E+00 9.15064E-01 2.16506E+00
 -1       352 0.00000E+00 9.15064E-01 9.15064E-01
 -1       353 0.00000E+00 2.16506E+00 9.15064E-01
 -1       354 0.00000E+00 9.09246E+00 9.09246E+00
 -1       355 0.00000E+00 7.84246E+00 9.09246E+00
 -1       356 0.00000E+00 9.09246E+00 7.84246E+00
 -1       357 0.00000E+00 9.08494E+00 9.15064E-01
 -1       358 0.00000E+00 9.08494E+00 2.16506E+00
 -1       359 0.00000E+00 7.83494E+00 9.15064E-01
 -1       360 0.00000E+00 1.05677E+00 4.37736E+00
 -1       361 0.00000E+00 1.05677E+00 3.12736E+00
 -1       362 0.00000E+00 1.97183E+00 2.79242E+00
 -1       363 0.00000E+00 1.05462E+00 6.82666E+00
 -1       364 0.00000E+00 1.05462E+00 5.57666E+00
 -1       365 0.00000E+00 2.11139E+00 4.95402E+00
 -1       366 0.00000E+00 1.96968E+00 7.16159E+00
 -1       367 0.00000E+00 4.47118E+00 8.84770E+00
 -1       368 0.00000E+00 3.22118E+00 8.84770E+00
 -1       369 0.00000E+00 2.88625E+00 7.93264E+00
 -1       370 0.00000E+00 6.90603E+00 9.09248E+00
 -1       371 0.00000E+00 5.65603E+00 9.09248E+00
 -1       372 0.00000E+00 5.12722E+00 7.94018E+00
 -1       373 0.00000E+00 7.24849E+00 8.18494E+00
 -1       374 0.00000E+00 9.02678E+00 3.04512E+00
 -1       375 0.00000E+00 9.02678E+00 4.29512E+00
 -1       376 0.00000E+00 8.11171E+00 2.71018E+00
 -1       377 0.00000E+00 8.87148E+00 5.58546E+00
 -1       378 0.00000E+00 8.87148E+00 6.83546E+00
 -1       379 0.00000E+00 7.89825E+00 4.88058E+00
 -1       380 0.00000E+00 7.96394E+00 7.17792E+00
 -1       381 0.00000E+00 3.21515E+00 1.11764E+00
 -1       382 0.00000E+00 4.46515E+00 1.11764E+00
 -1       383 0.00000E+00 2.88021E+00 2.03271E+00
 -1       384 0.00000E+00 5.70405E+00 9.88383E-01
 -1       385 0.00000E+00 6.95405E+00 9.88383E-01
 -1       386 0.00000E+00 5.16919E+00 2.10602E+00
 -1       387 0.00000E+00 7.28899E+00 1.90345E+00
 -1       388 0.00000E+00 7.02698E+00 3.82691E+00
 -1       389 0.00000E+00 6.87168E+00 5.11725E+00
 -1       390 0.00000E+00 7.02751E+00 7.17794E+00
 -1       391 0.00000E+00 6.71181E+00 6.19861E+00
 -1       392 0.00000E+00 5.99636E+00 7.20563E+00
 -1       393 0.00000E+00 5.84053E+00 5.14495E+00
 -1       394 0.00000E+00 3.07841E+00 5.56131E+00
 -1       395 0.00000E+00 3.08056E+00 4.36202E+00
 -1       396 0.00000E+00 3.02580E+00 6.92436E+00
 -1       397 0.00000E+00 3.99498E+00 6.33236E+00
 -1       398 0.00000E+00 7.23083E+00 2.78350E+00
 -1       399 0.00000E+00 6.20425E+00 3.02018E+00
 -1       400 0.00000E+00 4.96535E+00 3.14944E+00
 -1       401 0.00000E+00 3.98894E+00 3.60230E+00
 -1       402 0.00000E+00 3.02192E+00 2.99500E+00
 -1       403 0.00000E+00 4.81151E+00 6.96086E+00
 -1       404 0.00000E+00 4.86412E+00 5.59781E+00
 -1       405 0.00000E+00 5.02400E+00 4.51645E+00
 -1       406 1.00000E+02 6.17092E+00 7.74295E+00
 -1       407 1.00000E+02 6.15331E+00 2.10924E+00
 -1       408 1.00000E+02 1.97677E+00 6.40810E+00
 -1       409 1.00000E+02 3.75472E+00 2.11354E+00
 -1       410 1.00000E+02 4.96932E+00 4.04759E+00
 -1       411 1.00000E+02 7.69540E+00 3.94237E+00
 -1       412 1.00000E+02 3.59023E+00 8.05355E+00
 -1       413 1.00000E+02 2.23528E+00 3.93029E+00
 -1       414 1.00000E+02 8.18495E+00 6.31206E+00
 -1       415 1.00000E+02 6.22631E+00 5.68066E+00
 -1       416 1.00000E+02 1.83013E+00 8.16987E+00
 -1       417 1.00000E+02 8.16987E+00 1.83013E+00
 -1       418 1.00000E+02 1.83013E+00 1.83013E+00
 -1       419 1.00000E+02 8.18492E+00 8.18492E+00
 -1       420 1.00000E+02 4.06359E+00 6.00040E+00
 -1       421 1.00000E+02 9.15064E-01 7.83494E+00
 -1       422 1.00000E+02 9.15064E-01 9.08494E+00
 -1       423 1.00000E+02 2.16506E+00 9.08494E+00
 -1       424 1.00000E+02 9.15064E-01 9.15064E-01
 -1       425 1.00000E+02 9.15064E-01 2.16506E+00
 -1       426 1.00000E+02 2.16506E+00 9.15064E-01
 -1       427 1.00000E+02 7.84246E+00 9.09246E+00
 -1       428 1.00000E+02 9.09246E+00 9.09246E+00
 -1       429 1.00000E+02 9.09246E+00 7.84246E+00
 -1       430 1.00000E+02 9.08494E+00 2.16506E+00
 -1       431 1.00000E+02 9.08494E+00 9.15064E-01
 -1       432 1.00000E+02 7.83494E+00 9.15064E-01
 -1       433 1.00000E+02 1.11764E+00 3.21515E+00
 -1       434 1.00000E+02 1.11764E+00 4.46515E+00
 -1       435 1.00000E+02 2.03271E+00 2.88021E+00
 -1       436 1.00000E+02 9.88383E-01 5.70405E+00
 -1       437 1.00000E+02 9.88383E-01 6.95405E+00
 -1       438 1.00000E+02 2.10602E+00 5.16919E+00
 -1       439 1.00000E+02 1.90345E+00 7.28899E+00
 -1       440 1.00000E+02 3.04512E+00 9.02678E+00
 -1       441 1.00000E+02 4.29512E+00 9.02678E+00
 -1       442 1.00000E+02 2.71018E+00 8.11171E+00
 -1       443 1.00000E+02 5.58546E+00 8.87148E+00
 -1       444 1.00000E+02 6.83546E+00 8.87148E+00
 -1       445 1.00000E+02 4.88058E+00 7.89825E+00
 -1       446 1.00000E+02 7.17792E+00 7.96394E+00
 -1       447 1.00000E+02 8.84770E+00 4.47118E+00
 -1       448 1.00000E+02 8.84770E+00 3.22118E+00
 -1       449 1.00000E+02 7.93264E+00 2.88625E+00
 -1       450 1.00000E+02 9.09248E+00 6.90603E+00
 -1       451 1.00000E+02 9.09248E+00 5.65603E+00
 -1       452 1.00000E+02 7.94018E+00 5.12722E+00
 -1       453 1.00000E+02 8.18494E+00 7.24849E+00
 -1       454 1.00000E+02 4.37736E+00 1.05677E+00
 -1       455 1.00000E+02 3.12736E+00 1.05677E+00
 -1       456 1.00000E+02 2.79242E+00 1.97183E+00
 -1       457 1.00000E+02 6.82666E+00 1.05462E+00
 -1       458 1.00000E+02 5.57666E+00 1.05462E+00
 -1       459 1.00000E+02 4.95402E+00 2.11139E+00
 -1       460 1.00000E+02 7.16159E+00 1.96968E+00
 -1       461 1.00000E+02 3.82691E+00 7.02698E+00
 -1       462 1.00000E+02 5.11725E+00 6.87168E+00
 -1       463 1.00000E+02 6.19861E+00 6.71181E+00
 -1       464 1.00000E+02 7.20563E+00 5.99636E+00
 -1       465 1.00000E+02 7.17794E+00 7.02751E+00
 -1       466 1.00000E+02 5.14495E+00 5.84053E+00
 -1       467 1.00000E+02 5.56131E+00 3.07841E+00
 -1       468 1.00000E+02 4.36202E+00 3.08056E+00
 -1       469 1.00000E+02 6.92436E+00 3.02580E+00
 -1       470 1.00000E+02 6.33236E+00 3.99498E+00
 -1       471 1.00000E+02 2.78350E+00 7.23083E+00
 -1       472 1.00000E+02 3.02018E+00 6.20425E+00
 -1       473 1.00000E+02 3.14944E+00 4.96535E+00
 -1       474 1.00000E+02 3.60230E+00 3.98894E+00
 -1       475 1.00000E+02 2.99500E+00 3.02192E+00
 -1       476 1.00000E+02 6.96086E+00 4.81151E+00
 -1       477 1.00000E+02 5.59781E+00 4.86412E+00
 -1       478 1.00000E+02 4.51645E+00 5.02400E+00
 -1       479 6.91176E+01 0.00000E+00 2.54713E+00
 -1       480 8.08824E+01 0.00000E+00 2.54713E+00
 -1       481 9.26167E+01 0.00000E+00 7.50182E+00
 -1       482 5.73529E+01 0.00000E+00 2.54713E+00
 -1       483 6.32353E+01 0.00000E+00 7.45287E+00
 -1       484 7.50000E+01 0.00000E+00 7.45287E+00
 -1       485 8.67647E+01 0.00000E+00 7.45287E+00
 -1       486 5.14706E+01 0.00000E+00 7.45287E+00
 -1       487 1.61730E+01 0.00000E+00 2.53257E+00
 -1       488 2.20588E+01 0.00000E+00 2.54713E+00
 -1       489 1.02941E+01 0.00000E+00 7.45287E+00
 -1       490 3.38235E+01 0.00000E+00 2.54713E+00
 -1       491 4.26337E+01 0.00000E+00 2.53943E+00
 -1       492 2.79412E+01 0.00000E+00 2.54713E+00
 -1       493 4.27451E+00 0.00000E+00 7.42376E+00
 -1       494 7.35294E+00 0.00000E+00 2.54713E+00
 -1       495 9.57256E+01 0.00000E+00 2.57616E+00
 -1       496 4.85294E+01 0.00000E+00 2.54713E+00
 -1       497 8.97059E+01 0.00000E+00 2.54713E+00
 -1       498 1.91176E+01 0.00000E+00 7.45287E+00
 -1       499 3.67647E+01 0.00000E+00 7.45287E+00
 -1       500 4.55787E+01 0.00000E+00 7.49225E+00
 -1       501 2.50000E+01 0.00000E+00 7.45287E+00
 -1       502 3.08824E+01 0.00000E+00 7.45287E+00
 -1       503 2.07630E+00 0.00000E+00 3.82131E+00
 -1       504 9.79237E+01 0.00000E+00 6.17869E+00
 -1       505 6.91176E+01 0.00000E+00 7.45287E+00
 -1       506 8.08824E+01 0.00000E+00 7.45287E+00
 -1       507 5.73529E+01 0.00000E+00 7.45287E+00
 -1       508 6.32353E+01 0.00000E+00 2.54713E+00
 -1       509 7.50000E+01 0.00000E+00 2.54713E+00
 -1       510 7.34125E+00 0.00000E+00 7.46642E+00
 -1       511 1.02802E+01 0.00000E+00 2.53912E+00
 -1       512 1.32273E+01 0.00000E+00 2.52647E+00
 -1       513 1.46991E+01 0.00000E+00 5.00827E+00
 -1       514 9.26593E+01 0.00000E+00 2.53322E+00
 -1       515 7.20588E+01 0.00000E+00 2.54713E+00
 -1       516 7.20588E+01 0.00000E+00 7.45287E+00
 -1       517 4.85286E+01 0.00000E+00 7.47225E+00
 -1       518 5.14706E+01 0.00000E+00 2.54713E+00
 -1       519 6.02941E+01 0.00000E+00 7.45287E+00
 -1       520 6.02941E+01 0.00000E+00 2.54713E+00
 -1       521 2.50000E+01 0.00000E+00 2.54713E+00
 -1       522 3.67647E+01 0.00000E+00 2.54713E+00
 -1       523 3.97037E+01 0.00000E+00 2.53013E+00
 -1       524 4.11472E+01 0.00000E+00 5.02730E+00
 -1       525 3.38235E+01 0.00000E+00 7.45287E+00
 -1       526 7.79412E+01 0.00000E+00 7.45287E+00
 -1       527 7.79412E+01 0.00000E+00 2.54713E+00
 -1       528 4.55727E+01 0.00000E+00 2.52243E+00
 -1       529 8.97059E+01 0.00000E+00 7.45287E+00
 -1       530 8.67647E+01 0.00000E+00 2.54713E+00
 -1       531 2.79412E+01 0.00000E+00 7.45287E+00
 -1       532 2.20588E+01 0.00000E+00 7.45287E+00
 -1       533 8.38235E+01 0.00000E+00 2.54713E+00
 -1       534 1.91175E+01 0.00000E+00 2.53832E+00
 -1       535 8.38235E+01 0.00000E+00 7.45287E+00
 -1       536 5.44118E+01 0.00000E+00 2.54713E+00
 -1       537 3.08824E+01 0.00000E+00 2.54713E+00
 -1       538 5.44118E+01 0.00000E+00 7.45287E+00
 -1       539 6.61765E+01 0.00000E+00 2.54713E+00
 -1       540 6.61765E+01 0.00000E+00 7.45287E+00
 -1       541 6.03343E+00 0.00000E+00 4.97977E+00
 -1       542 8.82332E+00 0.00000E+00 5.00000E+00
 -1       543 1.62315E+01 0.00000E+00 7.49741E+00
 -1       544 2.16506E+00 0.00000E+00 6.25000E+00
 -1       545 3.97010E+01 0.00000E+00 7.50455E+00
 -1       546 4.41064E+01 0.00000E+00 5.02143E+00
 -1       547 9.39618E+01 0.00000E+00 5.02821E+00
 -1       548 1.31760E+01 0.00000E+00 7.49777E+00
 -1       549 9.11697E+01 0.00000E+00 5.00229E+00
 -1       550 1.76471E+01 0.00000E+00 4.99998E+00
 -1       551 7.94118E+01 0.00000E+00 5.00000E+00
 -1       552 7.64706E+01 0.00000E+00 5.00000E+00
 -1       553 6.47059E+01 0.00000E+00 5.00000E+00
 -1       554 8.23529E+01 0.00000E+00 5.00000E+00
 -1       555 5.58824E+01 0.00000E+00 5.00000E+00
 -1       556 6.76471E+01 0.00000E+00 5.00000E+00
 -1       557 6.17647E+01 0.00000E+00 5.00000E+00
 -1       558 5.88235E+01 0.00000E+00 5.00000E+00
 -1       559 8.82353E+01 0.00000E+00 5.00000E+00
 -1       560 8.52941E+01 0.00000E+00 5.00000E+00
 -1       561 7.35294E+01 0.00000E+00 5.00000E+00
 -1       562 5.29412E+01 0.00000E+00 5.00000E+00
 -1       563 4.70526E+01 0.00000E+00 5.00925E+00
 -1       564 2.05882E+01 0.00000E+00 5.00000E+00
 -1       565 2.35294E+01 0.00000E+00 5.00000E+00
 -1       566 2.94118E+01 0.00000E+00 5.00000E+00
 -1       567 3.23529E+01 0.00000E+00 5.00000E+00
 -1       568 2.64706E+01 0.00000E+00 5.00000E+00
 -1       569 3.52941E+01 0.00000E+00 5.00000E+00
 -1       570 7.05882E+01 0.00000E+00 5.00000E+00
 -1       571 5.00000E+01 0.00000E+00 5.00000E+00
 -1       572 3.82353E+01 0.00000E+00 4.99998E+00
 -1       573 4.26379E+01 0.00000E+00 7.50759E+00
 -1       574 1.17439E+01 0.00000E+00 4.99812E+00
 -1       575 9.78349E+01 0.00000E+00 3.75000E+00
 -1       576 4.28341E+00 0.00000E+00 2.58354E+00
 -1       577 9.57116E+01 0.00000E+00 7.42460E+00
 -1       578 3.76654E+00 0.00000E+00 5.01168E+00
 -1       579 1.87615E+00 0.00000E+00 8.23475E+00
 -1       580 1.86018E+00 0.00000E+00 1.78097E+00
 -1       581 9.81239E+01 0.00000E+00 1.76523E+00
 -1       582 9.81388E+01 0.00000E+00 8.22066E+00
 -1       583 9.62315E+01 0.00000E+00 4.99153E+00